/*--------------------------------*- C++ -*----------------------------------*\
| =========                 |                                                 |
| \\      /  F ield         | OpenFOAM: The Open Source CFD Toolbox           |
|  \\    /   O peration     | Version:  v2006                                 |
|   \\  /    A nd           | Website:  www.openfoam.com                      |
|    \\/     M anipulation  |                                                 |
\*---------------------------------------------------------------------------*/
FoamFile
{
    version     2.0;
    format      ascii;
    class       volScalarField;
    location    "0.01";
    object      k;
}
// * * * * * * * * * * * * * * * * * * * * * * * * * * * * * * * * * * * * * //

dimensions      [0 2 -2 0 0 0 0];


internalField   nonuniform List<scalar> 
374400
(
0.0201763
0.0192735
0.0189425
0.0188508
0.0188556
0.0188889
0.0189256
0.0189557
0.0189794
0.0189994
0.0190187
0.0190399
0.0190643
0.019093
0.0191259
0.0191638
0.0192045
0.0192503
0.0192974
0.0193437
0.0193817
0.0194113
0.0194332
0.0194474
0.0194603
0.0194667
0.0194721
0.0194806
0.019488
0.0194955
0.0195035
0.0195144
0.0195233
0.0195321
0.0195368
0.0195408
0.0195474
0.0195534
0.0195599
0.0195668
0.0195758
0.0195831
0.0195902
0.0195939
0.0195971
0.0196023
0.0196067
0.0196119
0.0196157
0.0196192
0.0196233
0.0196263
0.0196295
0.0196311
0.0196324
0.0196344
0.0196359
0.0196369
0.019638
0.019641
0.0196431
0.0196448
0.0196454
0.0196457
0.0196456
0.0196452
0.0196438
0.0196421
0.0196412
0.0196405
0.0196392
0.0196383
0.0196375
0.0196354
0.019633
0.0196289
0.0196233
0.0196145
0.0196023
0.0195852
0.0195633
0.0195367
0.0195064
0.0194732
0.0194402
0.0194096
0.0193823
0.0193588
0.0193389
0.0193228
0.0193104
0.0193015
0.019296
0.0192934
0.0192937
0.0192966
0.0193018
0.0193091
0.0193183
0.0193293
0.0193419
0.019356
0.0193714
0.019388
0.0194061
0.0194249
0.019445
0.0194651
0.0194872
0.0195079
0.019533
0.0195526
0.0195831
0.0195978
0.0196407
0.0196455
0.019723
0.0201762
0.0192733
0.0189422
0.0188502
0.0188547
0.0188876
0.0189239
0.0189536
0.0189769
0.0189969
0.0190162
0.0190375
0.0190624
0.0190919
0.0191258
0.0191649
0.0192073
0.019255
0.0193042
0.0193525
0.0193922
0.0194229
0.0194456
0.0194604
0.0194736
0.0194804
0.0194859
0.0194946
0.0195021
0.0195098
0.0195181
0.0195293
0.0195384
0.0195474
0.0195522
0.0195563
0.019563
0.019569
0.0195754
0.0195823
0.0195914
0.0195985
0.0196056
0.0196093
0.0196125
0.0196175
0.0196218
0.0196265
0.0196301
0.0196333
0.0196371
0.0196399
0.0196427
0.019644
0.0196452
0.0196468
0.0196478
0.0196481
0.0196481
0.01965
0.0196517
0.0196527
0.019653
0.019653
0.0196525
0.0196516
0.0196495
0.0196472
0.0196455
0.0196443
0.0196424
0.0196413
0.0196402
0.0196378
0.0196349
0.0196304
0.0196241
0.0196144
0.0196009
0.0195822
0.0195586
0.0195306
0.019499
0.0194649
0.0194314
0.0194009
0.0193739
0.0193509
0.0193319
0.0193166
0.0193051
0.019297
0.0192923
0.0192906
0.0192916
0.0192952
0.0193009
0.0193088
0.0193185
0.0193299
0.0193428
0.0193572
0.0193728
0.0193895
0.0194077
0.0194266
0.0194469
0.019467
0.0194893
0.01951
0.0195352
0.0195548
0.0195854
0.0196002
0.0196433
0.0196481
0.0197261
0.0201758
0.0192724
0.0189409
0.0188481
0.0188518
0.0188836
0.0189188
0.0189475
0.01897
0.0189893
0.0190083
0.0190296
0.0190548
0.0190852
0.0191205
0.0191618
0.0192069
0.019258
0.0193108
0.0193626
0.0194053
0.0194386
0.0194631
0.0194793
0.0194939
0.0195012
0.0195074
0.0195172
0.0195255
0.0195344
0.0195437
0.0195559
0.0195657
0.0195755
0.0195808
0.0195853
0.0195926
0.0195992
0.0196062
0.0196135
0.0196228
0.0196304
0.0196378
0.0196417
0.0196449
0.0196503
0.0196547
0.0196595
0.0196631
0.0196662
0.0196697
0.0196723
0.0196749
0.0196762
0.0196773
0.0196786
0.0196795
0.0196794
0.0196786
0.0196799
0.019681
0.0196816
0.0196817
0.0196815
0.0196808
0.0196795
0.019677
0.0196738
0.0196712
0.0196692
0.0196668
0.0196652
0.0196638
0.019661
0.0196577
0.0196524
0.0196453
0.0196341
0.0196182
0.019596
0.0195685
0.0195367
0.0195017
0.0194645
0.0194286
0.0193962
0.0193681
0.0193445
0.0193251
0.0193099
0.0192986
0.0192909
0.0192866
0.0192854
0.0192869
0.0192908
0.0192971
0.0193054
0.0193155
0.0193273
0.0193405
0.0193552
0.0193711
0.019388
0.0194065
0.0194256
0.0194462
0.0194665
0.019489
0.0195099
0.0195354
0.0195552
0.0195862
0.0196012
0.019645
0.0196498
0.019729
0.0201755
0.0192716
0.0189395
0.0188456
0.0188481
0.0188785
0.0189125
0.0189401
0.0189617
0.0189805
0.0189995
0.0190216
0.0190483
0.0190813
0.0191204
0.0191666
0.0192178
0.0192764
0.019337
0.0193967
0.0194455
0.0194834
0.0195114
0.0195296
0.0195461
0.0195544
0.0195613
0.0195722
0.0195817
0.0195916
0.0196024
0.0196162
0.0196273
0.0196381
0.0196438
0.0196488
0.0196566
0.0196636
0.0196709
0.0196785
0.0196884
0.0196962
0.0197037
0.0197076
0.0197109
0.0197159
0.0197199
0.019724
0.019727
0.0197296
0.019732
0.0197338
0.0197354
0.0197362
0.0197367
0.0197369
0.0197366
0.0197348
0.0197321
0.0197319
0.0197317
0.019731
0.0197303
0.0197296
0.0197275
0.019725
0.0197208
0.0197151
0.0197101
0.0197062
0.019702
0.0196994
0.0196972
0.0196928
0.019688
0.0196809
0.0196715
0.0196569
0.0196363
0.0196076
0.019573
0.019534
0.019493
0.0194508
0.0194112
0.0193765
0.0193475
0.0193235
0.0193046
0.0192902
0.01928
0.0192736
0.0192706
0.0192705
0.0192731
0.0192784
0.0192857
0.019295
0.019306
0.0193186
0.0193326
0.0193479
0.0193644
0.0193821
0.0194011
0.0194206
0.0194416
0.0194623
0.0194852
0.0195065
0.0195326
0.0195528
0.0195846
0.0195999
0.0196446
0.0196497
0.0197308
0.0201746
0.0192695
0.0189361
0.0188403
0.0188405
0.0188683
0.0188994
0.0189242
0.0189434
0.0189599
0.0189771
0.0189981
0.0190248
0.019059
0.0191006
0.0191513
0.0192083
0.0192746
0.0193439
0.0194125
0.019469
0.019513
0.0195461
0.0195676
0.0195874
0.0195974
0.0196059
0.0196193
0.0196313
0.019644
0.0196573
0.0196737
0.0196867
0.0196995
0.0197063
0.0197121
0.0197215
0.0197298
0.0197384
0.0197468
0.0197574
0.0197659
0.0197741
0.0197783
0.0197819
0.0197873
0.0197916
0.0197956
0.0197982
0.0198005
0.0198022
0.0198033
0.0198043
0.0198047
0.0198049
0.0198045
0.0198034
0.0198003
0.0197956
0.0197936
0.0197923
0.0197904
0.0197892
0.019788
0.0197851
0.0197818
0.0197763
0.0197685
0.0197611
0.0197556
0.0197497
0.0197464
0.0197435
0.0197381
0.0197322
0.0197238
0.0197123
0.0196943
0.0196681
0.0196316
0.0195883
0.0195407
0.0194921
0.0194435
0.0193988
0.0193609
0.01933
0.0193053
0.0192862
0.019272
0.0192624
0.0192567
0.0192546
0.0192555
0.0192592
0.0192653
0.0192736
0.0192837
0.0192955
0.0193088
0.0193235
0.0193393
0.0193565
0.0193747
0.0193942
0.0194142
0.0194356
0.0194567
0.0194802
0.0195019
0.0195287
0.0195493
0.0195823
0.019598
0.0196444
0.0196496
0.0197341
0.0201738
0.0192674
0.0189324
0.0188342
0.0188315
0.0188561
0.0188839
0.0189054
0.0189214
0.0189355
0.0189509
0.0189715
0.0189993
0.0190366
0.0190836
0.0191426
0.0192108
0.019292
0.0193777
0.019463
0.0195331
0.0195877
0.0196285
0.019655
0.0196791
0.0196914
0.0197017
0.019718
0.0197325
0.019748
0.0197646
0.0197848
0.0198002
0.0198153
0.0198232
0.0198299
0.0198404
0.0198495
0.0198585
0.0198669
0.019878
0.0198869
0.0198948
0.0198989
0.0199021
0.0199067
0.0199096
0.0199115
0.0199125
0.0199128
0.0199115
0.0199103
0.0199088
0.0199076
0.0199064
0.0199033
0.0198992
0.0198918
0.0198827
0.0198765
0.0198721
0.019867
0.019864
0.0198612
0.0198555
0.0198493
0.0198399
0.0198268
0.0198138
0.0198043
0.0197944
0.0197889
0.0197842
0.0197755
0.0197667
0.0197543
0.0197383
0.0197134
0.0196778
0.0196289
0.0195721
0.0195124
0.0194539
0.0193978
0.0193487
0.0193088
0.0192779
0.0192545
0.0192377
0.0192263
0.0192196
0.0192169
0.0192176
0.0192213
0.0192276
0.0192361
0.0192466
0.0192588
0.0192725
0.0192875
0.0193038
0.019321
0.0193395
0.0193591
0.0193797
0.0194007
0.0194232
0.0194451
0.0194698
0.0194923
0.0195204
0.019542
0.0195768
0.0195932
0.0196426
0.019648
0.019738
0.0201723
0.0192635
0.0189258
0.0188238
0.0188162
0.0188355
0.0188572
0.0188724
0.0188819
0.0188896
0.0188993
0.018915
0.0189394
0.0189755
0.0190241
0.0190882
0.0191654
0.0192607
0.0193637
0.0194681
0.019555
0.0196237
0.0196756
0.0197096
0.0197411
0.0197573
0.0197709
0.0197931
0.0198128
0.0198344
0.019857
0.0198827
0.0199024
0.0199217
0.0199319
0.0199405
0.019954
0.0199656
0.0199767
0.0199855
0.0199967
0.0200058
0.0200139
0.020018
0.0200213
0.0200254
0.0200274
0.0200268
0.0200255
0.0200237
0.0200183
0.0200141
0.0200095
0.0200067
0.0200041
0.0199982
0.0199912
0.0199796
0.0199652
0.0199544
0.0199471
0.0199395
0.0199351
0.0199312
0.019924
0.019916
0.0199043
0.019887
0.019869
0.0198561
0.019843
0.0198358
0.0198298
0.0198191
0.0198083
0.0197933
0.0197736
0.0197423
0.0196965
0.019633
0.0195602
0.0194857
0.0194151
0.0193497
0.0192946
0.0192516
0.0192201
0.0191974
0.0191821
0.0191728
0.0191685
0.0191685
0.0191719
0.0191783
0.019187
0.0191979
0.0192108
0.0192251
0.0192407
0.0192576
0.0192757
0.0192947
0.0193148
0.0193359
0.0193582
0.0193806
0.0194045
0.0194279
0.0194543
0.0194781
0.0195084
0.0195312
0.0195691
0.0195866
0.0196407
0.0196464
0.0197455
0.0201707
0.0192593
0.0189184
0.0188117
0.0187982
0.0188111
0.0188253
0.0188324
0.0188339
0.0188336
0.0188362
0.0188458
0.0188664
0.0189017
0.0189537
0.0190272
0.0191205
0.0192413
0.0193759
0.0195155
0.0196324
0.0197249
0.0197949
0.0198407
0.0198828
0.0199044
0.0199225
0.0199521
0.0199787
0.020008
0.0200389
0.0200727
0.0200978
0.0201214
0.0201335
0.0201436
0.0201585
0.0201704
0.02018
0.0201846
0.0201931
0.0202
0.0202052
0.0202074
0.0202087
0.0202082
0.0202052
0.020196
0.0201882
0.0201797
0.0201641
0.0201524
0.0201395
0.0201322
0.0201254
0.0201111
0.0200954
0.0200713
0.0200411
0.0200173
0.0200013
0.0199857
0.019977
0.0199697
0.0199568
0.0199437
0.0199258
0.0199004
0.0198732
0.0198536
0.0198336
0.0198229
0.019814
0.0197985
0.0197832
0.0197627
0.0197365
0.0196949
0.0196342
0.0195506
0.0194577
0.0193663
0.0192841
0.0192127
0.0191562
0.0191158
0.0190895
0.0190732
0.0190649
0.0190628
0.0190655
0.0190721
0.0190819
0.0190943
0.0191088
0.019125
0.0191428
0.0191617
0.0191818
0.0192028
0.0192248
0.0192475
0.0192711
0.0192955
0.019321
0.0193465
0.0193738
0.0194002
0.0194299
0.0194567
0.0194908
0.0195163
0.0195592
0.0195787
0.0196411
0.0196471
0.0197609
0.0201682
0.0192527
0.0189073
0.0187937
0.0187716
0.0187748
0.0187771
0.0187715
0.0187588
0.0187436
0.0187308
0.0187254
0.0187314
0.0187543
0.0187982
0.0188698
0.0189702
0.0191114
0.0192782
0.0194596
0.0196165
0.0197438
0.019842
0.0199067
0.0199675
0.0199989
0.0200254
0.0200697
0.0201098
0.0201545
0.0201992
0.0202441
0.0202769
0.0203072
0.0203227
0.0203354
0.0203534
0.0203666
0.0203743
0.0203716
0.0203733
0.0203764
0.0203772
0.0203769
0.020376
0.0203705
0.020361
0.0203413
0.0203252
0.0203088
0.0202798
0.0202584
0.0202355
0.0202226
0.0202111
0.0201875
0.0201618
0.0201238
0.0200747
0.020034
0.0200069
0.0199806
0.0199665
0.0199549
0.0199353
0.0199165
0.0198928
0.01986
0.0198242
0.0197989
0.0197739
0.0197606
0.01975
0.0197321
0.0197145
0.0196918
0.0196617
0.0196115
0.0195345
0.019427
0.0193088
0.0191963
0.0191003
0.0190219
0.0189652
0.0189291
0.0189096
0.0189016
0.0189025
0.0189096
0.0189216
0.0189371
0.0189555
0.0189761
0.0189986
0.0190225
0.0190474
0.0190734
0.0191001
0.0191276
0.0191559
0.0191846
0.0192142
0.019244
0.0192749
0.0193059
0.0193386
0.0193702
0.0194058
0.0194379
0.0194784
0.0195086
0.0195598
0.019583
0.0196582
0.0196648
0.0198022
0.0201656
0.0192459
0.0188953
0.0187739
0.0187421
0.0187336
0.0187224
0.0187012
0.0186715
0.0186378
0.018605
0.0185789
0.018565
0.0185704
0.0186003
0.0186682
0.0187782
0.018952
0.0191729
0.0194291
0.0196579
0.0198468
0.0199944
0.0200917
0.0201827
0.0202296
0.0202689
0.0203346
0.0203935
0.0204573
0.0205164
0.0205708
0.020608
0.0206393
0.0206544
0.020666
0.0206777
0.0206813
0.0206726
0.0206426
0.020624
0.0206132
0.0205992
0.0205908
0.0205827
0.020561
0.0205349
0.0204899
0.0204551
0.0204202
0.0203628
0.0203204
0.0202754
0.0202502
0.0202277
0.0201822
0.0201342
0.0200653
0.0199805
0.0199088
0.0198605
0.0198136
0.0197887
0.019768
0.019733
0.0197001
0.0196603
0.0196091
0.0195552
0.0195173
0.0194807
0.0194614
0.0194462
0.0194217
0.0193983
0.0193694
0.0193321
0.0192699
0.0191746
0.0190435
0.0189059
0.0187842
0.0186911
0.018626
0.0185897
0.0185775
0.0185828
0.0185991
0.0186231
0.0186523
0.0186851
0.0187202
0.0187573
0.0187954
0.0188344
0.0188737
0.0189133
0.0189532
0.0189932
0.0190334
0.0190736
0.0191139
0.0191546
0.019195
0.0192363
0.0192769
0.0193195
0.0193601
0.0194052
0.0194452
0.0194961
0.0195329
0.0195963
0.0196242
0.019717
0.0197263
0.0198958
0.0201624
0.0192374
0.0188808
0.0187504
0.018707
0.0186842
0.0186559
0.018615
0.0185623
0.018502
0.0184387
0.0183786
0.0183267
0.0182919
0.0182826
0.0183142
0.0184004
0.0185766
0.0188338
0.0191687
0.0194917
0.0197735
0.0200032
0.0201578
0.0203051
0.0203819
0.0204469
0.0205564
0.0206532
0.0207544
0.0208292
0.0208818
0.020913
0.0209316
0.0209387
0.0209415
0.0209325
0.0209095
0.0208566
0.0207652
0.0207011
0.0206626
0.0206231
0.020602
0.0205833
0.0205409
0.0204942
0.0204196
0.0203621
0.020306
0.0202143
0.0201454
0.0200727
0.0200322
0.0199962
0.0199249
0.01985
0.019745
0.0196167
0.0195078
0.0194362
0.0193693
0.0193347
0.0193067
0.0192621
0.0192216
0.0191756
0.0191173
0.0190551
0.0190125
0.0189729
0.0189524
0.0189369
0.0189135
0.0188915
0.0188648
0.018828
0.0187603
0.0186482
0.0184926
0.018336
0.0182111
0.0181317
0.0180952
0.0180957
0.018122
0.018167
0.0182219
0.0182826
0.0183465
0.0184119
0.018478
0.0185439
0.0186091
0.0186733
0.0187363
0.0187981
0.0188586
0.0189181
0.0189765
0.0190339
0.0190901
0.0191457
0.0192002
0.0192548
0.0193076
0.0193622
0.0194135
0.0194699
0.019519
0.0195812
0.0196255
0.0197023
0.0197352
0.019847
0.0198576
0.0200662
0.0201593
0.0192294
0.0188669
0.0187274
0.0186723
0.0186349
0.0185891
0.0185271
0.0184496
0.0183598
0.0182621
0.0181611
0.0180624
0.0179748
0.0179082
0.0178853
0.0179271
0.0180887
0.0183873
0.0188361
0.0193079
0.0197433
0.0201111
0.0203635
0.0206098
0.020738
0.0208465
0.0210316
0.0211914
0.0213375
0.0213837
0.0213692
0.0213393
0.0212825
0.0212454
0.0212088
0.0211122
0.0209997
0.0208239
0.0205926
0.0204373
0.0203469
0.0202651
0.0202242
0.0201897
0.0201208
0.0200525
0.0199511
0.0198719
0.0197921
0.0196578
0.0195527
0.0194379
0.019373
0.0193145
0.0191988
0.0190776
0.018908
0.0187049
0.0185354
0.0184252
0.0183262
0.0182762
0.0182364
0.0181752
0.0181219
0.0180656
0.0180006
0.0179336
0.0178892
0.0178499
0.0178302
0.017816
0.0177977
0.0177818
0.0177653
0.0177413
0.017689
0.0175914
0.0174571
0.0173389
0.0172754
0.0172754
0.0173278
0.0174177
0.0175279
0.0176477
0.017771
0.0178941
0.0180157
0.0181347
0.01825
0.0183607
0.0184663
0.0185669
0.0186629
0.0187542
0.0188413
0.0189244
0.0190039
0.0190803
0.0191535
0.0192243
0.0192921
0.0193589
0.0194225
0.019487
0.0195468
0.0196121
0.0196677
0.0197388
0.0197874
0.0198753
0.0199094
0.0200394
0.0200477
0.0202991
0.0201561
0.019221
0.0188525
0.0187036
0.0186367
0.0185843
0.01852
0.0184354
0.0183303
0.0182068
0.0180675
0.0179155
0.0177537
0.0175888
0.0174293
0.0172968
0.0172236
0.0172801
0.0175152
0.0179865
0.0185777
0.0192147
0.0198497
0.0203175
0.0208237
0.0210979
0.0213394
0.0217732
0.0221345
0.0223954
0.0223061
0.022041
0.0218
0.0215068
0.0213406
0.0211916
0.0208729
0.0205431
0.0200994
0.019594
0.0192726
0.0190995
0.0189709
0.0189167
0.0188775
0.0188202
0.0187799
0.0187242
0.0186617
0.0185901
0.0184338
0.0182919
0.0181256
0.01803
0.017943
0.0177722
0.0175926
0.0173393
0.0170301
0.016785
0.0166337
0.0165064
0.016446
0.0164005
0.0163387
0.0162937
0.0162642
0.0162545
0.0162504
0.0162542
0.016265
0.0162726
0.0162818
0.0163056
0.0163294
0.0163609
0.0163858
0.0163828
0.0163258
0.0162354
0.016185
0.0162176
0.0163285
0.0165036
0.0167103
0.0169288
0.0171435
0.0173504
0.0175471
0.0177341
0.017912
0.0180807
0.0182394
0.0183882
0.0185272
0.0186568
0.0187773
0.0188895
0.0189939
0.0190914
0.0191828
0.0192684
0.0193497
0.0194261
0.0195001
0.0195694
0.0196391
0.0197024
0.0197719
0.0198294
0.0199054
0.019954
0.0200501
0.0200814
0.020228
0.0202299
0.0205264
0.0201532
0.0192138
0.0188401
0.0186832
0.0186061
0.0185403
0.0184596
0.0183547
0.0182244
0.0180692
0.0178902
0.0176875
0.0174612
0.0172128
0.0169466
0.0166767
0.0164369
0.0163073
0.0163711
0.0167865
0.017541
0.0186268
0.0199812
0.0210801
0.0224082
0.0231396
0.0237901
0.0248645
0.0255669
0.0256497
0.024786
0.0235601
0.0226799
0.0217679
0.0212741
0.0208411
0.0200076
0.0191912
0.0181721
0.0170978
0.0164308
0.0160869
0.0158845
0.0158249
0.0158034
0.0158308
0.0159169
0.0160285
0.0160341
0.0159971
0.0158452
0.0156606
0.0154219
0.0152798
0.0151464
0.0148829
0.0146049
0.0142108
0.0137115
0.0133038
0.0130372
0.0128032
0.0126892
0.0125998
0.0124782
0.0124021
0.0123839
0.0124651
0.0126014
0.0127157
0.0128452
0.0129164
0.0129811
0.0131106
0.0132394
0.0134119
0.0136058
0.0138232
0.0140017
0.0141731
0.0143864
0.014683
0.015038
0.0154367
0.0158357
0.0162138
0.0165591
0.0168755
0.0171641
0.0174292
0.0176724
0.017895
0.0180985
0.0182845
0.0184544
0.0186097
0.0187516
0.0188814
0.0190001
0.019109
0.0192093
0.0193019
0.0193886
0.019469
0.0195462
0.0196177
0.0196899
0.0197546
0.0198266
0.0198847
0.0199648
0.0200124
0.0201163
0.0201437
0.0203076
0.020302
0.0206455
0.0201508
0.0192077
0.0188302
0.0186671
0.0185818
0.0185056
0.0184118
0.0182906
0.0181397
0.0179587
0.0177462
0.0175002
0.0172165
0.0168906
0.0165185
0.0160991
0.0156528
0.0152304
0.0149347
0.0150689
0.0157818
0.017632
0.0206029
0.0231778
0.0264373
0.0281889
0.0296473
0.031434
0.0318643
0.0307842
0.0275642
0.0246469
0.0226586
0.0207072
0.0196684
0.0187801
0.0172247
0.0157798
0.0140907
0.0122626
0.0110151
0.0103823
0.0103007
0.0103862
0.0105563
0.0110093
0.0114687
0.0118974
0.0119805
0.01191
0.0115377
0.0111287
0.0106789
0.0104397
0.0102317
0.00988672
0.00957503
0.00917052
0.00864029
0.00820069
0.00791786
0.00768638
0.0075823
0.00750043
0.00739956
0.00736316
0.00741975
0.00769773
0.00806086
0.00834195
0.00864298
0.00880355
0.00894575
0.00921706
0.00948584
0.00984702
0.0102726
0.0107968
0.0113192
0.0118791
0.0124759
0.01313
0.0137906
0.0144483
0.015054
0.0155938
0.0160642
0.0164804
0.0168471
0.0171723
0.0174607
0.0177173
0.0179465
0.0181511
0.0183322
0.0184933
0.0186377
0.0187677
0.0188859
0.0189937
0.0190931
0.0191848
0.0192709
0.0193512
0.0194291
0.0195014
0.0195754
0.0196417
0.0197175
0.0197776
0.0198639
0.0199134
0.0200282
0.020055
0.0202381
0.0202271
0.0206167
0.0201488
0.0192034
0.0188229
0.0186555
0.0185645
0.0184809
0.018378
0.0182452
0.0180796
0.0178799
0.0176432
0.0173653
0.0170391
0.0166544
0.0161997
0.0156574
0.0150276
0.0143102
0.0135918
0.0132853
0.0138617
0.0171883
0.0225427
0.0273278
0.0330457
0.0358801
0.0378256
0.0383791
0.0370735
0.0330136
0.0269911
0.0220855
0.0191114
0.0165619
0.0152837
0.0141547
0.0121475
0.0101314
0.00775358
0.00541235
0.0046902
0.00529451
0.00648884
0.00712038
0.00766389
0.00842712
0.00893925
0.00915111
0.00901746
0.00868108
0.00791526
0.00727737
0.00662512
0.0062839
0.00598107
0.0055474
0.00524216
0.00493257
0.00453497
0.00416813
0.00390177
0.00367196
0.00356241
0.00347033
0.00334248
0.00327747
0.0033168
0.00357536
0.00396529
0.00429553
0.00467118
0.0048791
0.00508055
0.00547702
0.00587718
0.00643626
0.00710083
0.00804385
0.00910132
0.0101559
0.0111475
0.012119
0.0130284
0.0138653
0.0146016
0.0152369
0.0157748
0.0162391
0.0166405
0.0169905
0.0172962
0.0175592
0.0177858
0.0179826
0.0181553
0.0183087
0.0184462
0.0185705
0.0186839
0.018788
0.0188845
0.0189742
0.0190592
0.0191389
0.0192169
0.0192897
0.0193652
0.019433
0.0195116
0.0195734
0.0196644
0.0197149
0.0198376
0.0198628
0.0200627
0.0200452
0.0204726
0.0201475
0.0192002
0.0188179
0.0186474
0.0185526
0.018464
0.0183548
0.018214
0.0180385
0.017826
0.0175728
0.017273
0.0169176
0.0164925
0.0159805
0.015352
0.0145876
0.0136331
0.0125484
0.0117652
0.0122804
0.0172171
0.0241559
0.0305271
0.0368272
0.0398575
0.0410555
0.0400521
0.0369045
0.0297328
0.021883
0.015954
0.01231
0.00851761
0.00630889
0.00485811
0.00370258
0.00289559
0.00304211
0.00339673
0.00328573
0.00511932
0.00696593
0.00786988
0.00842322
0.0086488
0.00857751
0.00798938
0.00738156
0.00656786
0.00511666
0.00393712
0.00278984
0.00228508
0.00187599
0.00171347
0.00190839
0.00215283
0.00208133
0.0018244
0.00156859
0.00136521
0.0012561
0.00118866
0.0011074
0.00109658
0.00127008
0.0017617
0.00233708
0.002685
0.00305171
0.00324161
0.00342835
0.00380314
0.0041882
0.00475064
0.00548104
0.00657767
0.00783691
0.0091261
0.0103233
0.0114676
0.0125144
0.0134617
0.0142717
0.0149591
0.015533
0.0160219
0.0164438
0.0168059
0.0171103
0.0173674
0.0175871
0.0177771
0.0179439
0.0180922
0.0182255
0.0183465
0.0184573
0.0185596
0.0186551
0.0187443
0.0188294
0.0189097
0.0189888
0.0190632
0.0191408
0.0192106
0.0192924
0.019357
0.0194531
0.0195053
0.0196348
0.0196586
0.0198704
0.0198475
0.0203025
0.0201465
0.019198
0.0188145
0.0186419
0.0185444
0.0184522
0.0183385
0.018192
0.0180093
0.0177873
0.0175219
0.017206
0.016829
0.0163736
0.0158184
0.0151242
0.0142533
0.0131092
0.0117092
0.0104964
0.0111901
0.0172865
0.0246185
0.031456
0.037409
0.0404221
0.0403912
0.0365196
0.0311236
0.020257
0.0117269
0.00388551
0.00322145
0.00322653
0.00301541
0.00279494
0.0026258
0.00246337
0.00237343
0.00231897
0.00331309
0.00640956
0.00859447
0.00989095
0.00992865
0.00869713
0.00739254
0.0050582
0.00363989
0.0024155
0.00160454
0.00134196
0.000786448
0.000373602
0.000525361
0.000446804
0.000453035
0.000882749
0.0010805
0.00106336
0.00100271
0.00104135
0.00125402
0.00145502
0.0017429
0.0020557
0.00237279
0.00290389
0.00339116
0.00370676
0.00403446
0.00420695
0.00434268
0.00452844
0.0046937
0.00492191
0.00530419
0.00608919
0.00722588
0.00853525
0.0098052
0.011026
0.0121525
0.0131628
0.0140145
0.0147286
0.0153203
0.0158246
0.0162531
0.0166154
0.0169172
0.0171699
0.0173844
0.0175699
0.0177332
0.0178787
0.0180101
0.0181298
0.0182398
0.0183417
0.0184371
0.0185267
0.0186124
0.0186937
0.0187741
0.0188499
0.0189292
0.0190009
0.0190854
0.019152
0.0192524
0.0193071
0.0194434
0.0194683
0.019689
0.0196607
0.0201369
0.0201459
0.0191966
0.0188122
0.018638
0.0185384
0.0184434
0.0183263
0.0181754
0.0179873
0.0177583
0.017484
0.0171565
0.0167638
0.0162872
0.0157017
0.0149621
0.0140153
0.0127433
0.0111264
0.00960975
0.010663
0.0171572
0.0241273
0.0304066
0.0350402
0.0376511
0.0367985
0.0306292
0.0235691
0.00830118
0.00278195
0.00316814
0.00287635
0.00264551
0.00232339
0.00216384
0.00211454
0.0021011
0.00216835
0.00269264
0.00472745
0.00781347
0.00998583
0.0117737
0.0108507
0.00742903
0.00473372
0.00130616
0.000615516
0.000657688
0.000585596
0.000597991
0.000526198
0.000747468
0.000919334
0.000848818
0.000601468
0.000577041
0.000952007
0.00131569
0.00175125
0.00228712
0.00274351
0.00278935
0.00279015
0.00278763
0.00277761
0.00302847
0.0033808
0.00363671
0.00394072
0.00413268
0.0043043
0.00450059
0.00466394
0.00487059
0.00515623
0.00573526
0.00671193
0.00798678
0.00929151
0.0105588
0.0117405
0.0128165
0.0137246
0.0144674
0.0150783
0.0155993
0.0160311
0.016392
0.0166946
0.0169477
0.0171618
0.0173465
0.0175089
0.017654
0.0177853
0.0179051
0.0180157
0.0181184
0.0182151
0.0183061
0.0183936
0.0184766
0.0185592
0.0186371
0.0187191
0.018793
0.0188804
0.0189491
0.0190526
0.0191096
0.0192514
0.0192785
0.0195065
0.0194776
0.0199696
0.0201458
0.0191961
0.0188109
0.0186353
0.0185339
0.0184367
0.0183167
0.0181624
0.0179696
0.0177348
0.0174527
0.0171147
0.0167078
0.0162109
0.0155963
0.0148125
0.0137918
0.0123956
0.010573
0.00875425
0.0103025
0.0166757
0.0228925
0.0280998
0.0314814
0.0344253
0.0343274
0.0190242
0.00964708
0.00535989
0.00239855
0.00257839
0.00215961
0.00191646
0.00179387
0.00165485
0.00193739
0.00220219
0.00258204
0.00367812
0.00634841
0.00885175
0.0106643
0.0132873
0.0108544
0.00255474
0.00121104
0.000511066
0.000359372
0.000353711
0.000337684
0.000399088
0.00022844
0.000871385
0.00117512
0.00136017
0.00134409
0.0011553
0.00133348
0.00197267
0.0025641
0.00287544
0.00262236
0.00194844
0.00144219
0.00123422
0.000948271
0.000855845
0.00105241
0.00126919
0.00163675
0.00191099
0.00240763
0.00319141
0.00376489
0.0043315
0.00481318
0.00544018
0.00639878
0.00767003
0.00898935
0.0102761
0.0114777
0.0125742
0.0135094
0.0142719
0.0148958
0.0154193
0.01585
0.0162059
0.0165055
0.0167587
0.0169732
0.0171576
0.0173196
0.0174642
0.017595
0.0177149
0.0178256
0.0179287
0.018026
0.0181179
0.0182064
0.0182908
0.0183748
0.0184541
0.0185378
0.0186133
0.0187026
0.0187725
0.0188783
0.0189349
0.0190793
0.019103
0.0193368
0.0193008
0.0198035
0.0201455
0.0191953
0.0188095
0.0186331
0.0185306
0.018432
0.0183102
0.0181536
0.0179579
0.0177191
0.0174319
0.0170872
0.0166714
0.0161623
0.0155306
0.0147224
0.0136631
0.0122063
0.0102921
0.00833907
0.0101252
0.0161896
0.0220301
0.0263561
0.028551
0.0298164
0.000919016
0.0013549
0.00208836
0.0027336
0.00419595
0.0070552
0.00924094
0.0107189
0.0133344
0.001065
0.00150074
0.00186787
0.00200004
0.00207067
0.00261736
0.00303183
0.00321213
0.00300819
0.00089581
0.00184409
0.00262534
0.00351615
0.00427586
0.00503768
0.00602969
0.0073197
0.00865639
0.00996248
0.0111818
0.0122952
0.0132517
0.0140353
0.01467
0.0152018
0.015642
0.0160036
0.0163058
0.0165642
0.0167846
0.0169744
0.0171407
0.0172887
0.0174225
0.0175449
0.0176582
0.0177639
0.0178636
0.017958
0.018049
0.0181356
0.018222
0.0183036
0.0183896
0.0184671
0.0185587
0.0186302
0.0187379
0.0187948
0.0189414
0.0189629
0.019201
0.0191609
0.0196712
0.0201446
0.0191935
0.0188071
0.0186297
0.0185258
0.0184254
0.0183013
0.0181417
0.0179423
0.017699
0.017406
0.0170538
0.0166281
0.0161062
0.0154575
0.0146255
0.0135296
0.0120163
0.010016
0.00792869
0.009855
0.0155864
0.0209241
0.0243761
0.0253421
0.0242224
0.000842796
0.00126827
0.00202617
0.00288204
0.00468835
0.00767291
0.00952571
0.0107172
0.0128913
0.000969781
0.00154517
0.00218112
0.00265045
0.00306554
0.00334158
0.00352899
0.00345594
0.00292422
7.07567e-05
0.000421732
0.00105894
0.00204366
0.00304397
0.00398084
0.00506775
0.00646047
0.00787441
0.0092426
0.0105179
0.0116825
0.0126893
0.0135177
0.0141832
0.0147423
0.0152139
0.0156127
0.0159368
0.0162114
0.0164473
0.0166519
0.0168303
0.0169878
0.0171296
0.017259
0.0173785
0.0174899
0.0175951
0.0176944
0.0177902
0.0178814
0.0179721
0.0180578
0.0181477
0.0182289
0.0183239
0.0183979
0.018508
0.0185666
0.0187156
0.0187384
0.018981
0.0189434
0.0194616
0.020144
0.0191919
0.0188044
0.0186254
0.0185196
0.0184166
0.0182892
0.0181255
0.0179206
0.0176704
0.0173683
0.0170043
0.016563
0.01602
0.0153426
0.0144702
0.0133116
0.0116998
0.00954567
0.00720051
0.00922337
0.0143497
0.0188516
0.021047
0.0207854
0.0186654
0.000745872
0.00102357
0.00178524
0.0029771
0.00539391
0.00851783
0.00986228
0.0108054
0.0129301
0.000858222
0.00153954
0.00235222
0.00300172
0.00360881
0.00395399
0.00400112
0.00373974
0.003229
6.03029e-05
5.80272e-05
0.000153906
0.00090138
0.00189734
0.00289953
0.00401544
0.0054981
0.00698029
0.00840625
0.00972912
0.0109291
0.0119627
0.0128275
0.0135284
0.0141161
0.0146165
0.0150482
0.0154174
0.0157324
0.0159919
0.0162122
0.0164032
0.0165719
0.0167238
0.0168624
0.0169904
0.0171095
0.0172218
0.0173278
0.0174299
0.017527
0.0176232
0.0177141
0.017809
0.0178948
0.0179943
0.0180727
0.0181876
0.0182502
0.0184045
0.0184316
0.018682
0.0186459
0.0191761
0.0201434
0.0191903
0.0188016
0.0186207
0.0185124
0.0184062
0.0182749
0.0181062
0.0178952
0.0176371
0.017325
0.0169479
0.01649
0.0159254
0.0152198
0.0143097
0.0130966
0.0114069
0.00913809
0.0065853
0.00835797
0.0130016
0.0168398
0.018279
0.0172475
0.0143746
0.000919692
0.00100355
0.0015619
0.00284768
0.00589963
0.00894732
0.00993128
0.0107553
0.013062
0.000771726
0.00151407
0.00244431
0.00318379
0.00383632
0.00410805
0.00397056
0.00362527
0.00310734
8.69686e-05
9.00923e-05
0.000109856
0.000189204
0.00079278
0.001645
0.00271197
0.00418578
0.00569867
0.00711185
0.0084453
0.00967207
0.0107431
0.0116603
0.012429
0.0130783
0.0136347
0.0141194
0.0145437
0.0149168
0.0152439
0.0155094
0.0157342
0.0159305
0.0161057
0.0162644
0.0164103
0.0165455
0.0166725
0.0167922
0.0169069
0.0170159
0.0171233
0.0172247
0.0173297
0.017425
0.017534
0.0176217
0.0177464
0.0178178
0.0179818
0.0180154
0.0182741
0.0182405
0.0187848
0.0201426
0.0191881
0.0187978
0.0186145
0.0185029
0.0183926
0.0182562
0.0180809
0.0178618
0.0175932
0.0172681
0.0168745
0.0163956
0.0158042
0.0150649
0.0141109
0.0128422
0.0110842
0.00871513
0.00594996
0.00711265
0.011291
0.0147713
0.0159383
0.0146853
0.0112223
0.00123639
0.00107381
0.00104984
0.00229344
0.00657346
0.00908248
0.00962742
0.0103969
0.012936
0.000681809
0.0014807
0.00248281
0.00324897
0.00388583
0.00410121
0.00390871
0.00360814
0.00301302
0.000111511
0.000153647
0.000205959
0.000238035
0.000332733
0.000759844
0.00161803
0.00284894
0.00423652
0.00553929
0.00681805
0.00796159
0.00902271
0.00997477
0.0108089
0.0115381
0.0121696
0.0127243
0.0132143
0.0136499
0.0140391
0.014385
0.014694
0.0149483
0.0151663
0.0153595
0.0155345
0.015695
0.0158447
0.0159849
0.0161189
0.016246
0.0163707
0.0164887
0.0166096
0.0167204
0.0168444
0.0169463
0.0170853
0.0171694
0.017347
0.0173904
0.0176635
0.0176338
0.0182046
0.0201415
0.0191858
0.0187942
0.0186085
0.018494
0.0183796
0.0182382
0.0180567
0.0178297
0.0175512
0.0172133
0.0168035
0.016304
0.0156868
0.0149162
0.0139239
0.0126188
0.0108464
0.00848411
0.005728
0.00536888
0.00919928
0.0129562
0.0151495
0.0147292
0.0108999
0.00137895
0.00112202
0.000906101
0.00301499
0.00766871
0.00857376
0.00841867
0.00920339
0.0114939
0.000482002
0.00123668
0.00219681
0.00297327
0.00368253
0.00398349
0.00384449
0.00360895
0.00304498
0.000244436
0.000387331
0.000553337
0.000614005
0.000624514
0.000644587
0.00110543
0.00206299
0.00329201
0.00444399
0.00562979
0.00670649
0.00770494
0.00863801
0.00948107
0.0102378
0.0109004
0.0114851
0.0120035
0.012466
0.0128807
0.0132544
0.0135927
0.0138962
0.0141713
0.0144184
0.0146286
0.0148144
0.0149835
0.0151402
0.015289
0.0154301
0.0155687
0.0157003
0.0158351
0.0159596
0.0160979
0.0162135
0.0163669
0.0164641
0.0166577
0.0167113
0.017005
0.0169799
0.0175858
0.0201409
0.0191843
0.0187917
0.0186044
0.0184879
0.0183709
0.0182261
0.0180403
0.0178079
0.0175224
0.0171758
0.0167548
0.016241
0.0156062
0.0148148
0.0137986
0.0124768
0.0107133
0.00841069
0.00572742