/*--------------------------------*- C++ -*----------------------------------*\
| =========                 |                                                 |
| \\      /  F ield         | OpenFOAM: The Open Source CFD Toolbox           |
|  \\    /   O peration     | Version:  v2006                                 |
|   \\  /    A nd           | Website:  www.openfoam.com                      |
|    \\/     M anipulation  |                                                 |
\*---------------------------------------------------------------------------*/
FoamFile
{
    version     2.0;
    format      ascii;
    class       volScalarField;
    location    "0.53";
    object      k;
}
// * * * * * * * * * * * * * * * * * * * * * * * * * * * * * * * * * * * * * //

dimensions      [0 2 -2 0 0 0 0];


internalField   nonuniform List<scalar> 
374400
(
0.0966776
0.115197
0.106552
0.0947916
0.0935507
0.0968542
0.104938
0.113569
0.121078
0.127444
0.133285
0.138761
0.144072
0.149285
0.15454
0.159758
0.165
0.170266
0.175322
0.179883
0.18366
0.186575
0.1889
0.190592
0.191959
0.193003
0.193702
0.194755
0.196184
0.197994
0.200586
0.203229
0.205147
0.206687
0.207854
0.208632
0.2098
0.211371
0.213345
0.216137
0.218934
0.220942
0.222535
0.223734
0.224529
0.225719
0.227305
0.229285
0.231243
0.232801
0.234722
0.236633
0.238134
0.239256
0.239997
0.241098
0.242562
0.244373
0.246878
0.249318
0.251049
0.252401
0.253413
0.254082
0.255076
0.256397
0.258028
0.260288
0.262492
0.26406
0.265281
0.266198
0.266803
0.267702
0.268893
0.270372
0.272413
0.27528
0.279189
0.283932
0.288949
0.293789
0.298298
0.302321
0.305646
0.308277
0.310408
0.312174
0.313666
0.314938
0.316036
0.316994
0.317832
0.31856
0.319188
0.319724
0.320179
0.320565
0.320886
0.321152
0.321365
0.321532
0.321663
0.321764
0.321842
0.321902
0.321952
0.321992
0.322027
0.322058
0.32209
0.322117
0.32215
0.322181
0.322203
0.322386
0.322112
0.0966788
0.115195
0.106548
0.0947848
0.09354
0.0968408
0.104919
0.113549
0.121058
0.127426
0.133273
0.138756
0.144078
0.149305
0.154578
0.159821
0.16509
0.170388
0.175476
0.180068
0.183869
0.186804
0.189141
0.190843
0.192217
0.193266
0.193968
0.195026
0.196462
0.198281
0.200883
0.203534
0.205458
0.207002
0.208173
0.208954
0.210125
0.211699
0.213676
0.216472
0.219272
0.221282
0.222874
0.224074
0.224869
0.226059
0.227643
0.229621
0.231576
0.233132
0.235049
0.236957
0.238454
0.239573
0.240312
0.24141
0.242869
0.244673
0.247168
0.249598
0.251321
0.252666
0.253672
0.254338
0.255326
0.256637
0.258259
0.260505
0.262695
0.264251
0.265465
0.266375
0.266975
0.267867
0.269049
0.270515
0.272541
0.275387
0.27927
0.283978
0.28896
0.293771
0.298256
0.302264
0.305586
0.30822
0.310357
0.312139
0.313644
0.314932
0.316047
0.317024
0.317878
0.318619
0.319258
0.319803
0.320268
0.320658
0.320985
0.321251
0.321465
0.32163
0.321759
0.321859
0.321936
0.321996
0.322044
0.322082
0.322119
0.322149
0.32218
0.322209
0.322241
0.322272
0.322294
0.32248
0.322206
0.0966806
0.115189
0.106537
0.0947652
0.0935121
0.0968096
0.104881
0.113505
0.121014
0.127388
0.133246
0.138745
0.144091
0.149349
0.154664
0.159959
0.16529
0.170658
0.175817
0.180478
0.184335
0.187309
0.189676
0.191399
0.192789
0.193849
0.194559
0.195629
0.197078
0.198915
0.201539
0.204211
0.206149
0.207701
0.208879
0.209663
0.21084
0.212421
0.214407
0.217212
0.220016
0.222028
0.223621
0.22482
0.225615
0.226804
0.228386
0.230359
0.232309
0.233859
0.235767
0.237664
0.239153
0.240263
0.240998
0.242087
0.243534
0.245323
0.247794
0.250197
0.2519
0.253228
0.254221
0.254878
0.255852
0.257146
0.258744
0.260956
0.26311
0.264639
0.265831
0.266725
0.267315
0.268192
0.269354
0.270795
0.272783
0.275577
0.279384
0.284002
0.288889
0.293615
0.298035
0.301999
0.305301
0.307938
0.310094
0.311899
0.313438
0.314764
0.315918
0.316931
0.317818
0.318587
0.319252
0.319818
0.320297
0.3207
0.321032
0.321301
0.321513
0.321676
0.3218
0.321893
0.321966
0.322021
0.322065
0.322099
0.322132
0.322161
0.322193
0.322219
0.322252
0.322284
0.322306
0.322491
0.322217
0.0966832
0.11518
0.10652
0.0947322
0.0934639
0.0967545
0.104812
0.113426
0.12093
0.12731
0.133181
0.138701
0.144081
0.149384
0.154763
0.160138
0.165567
0.171048
0.176328
0.181101
0.18505
0.188092
0.190511
0.192269
0.193687
0.194768
0.195491
0.19658
0.198055
0.199922
0.202585
0.205292
0.207253
0.208824
0.210012
0.210803
0.21199
0.213583
0.215583
0.218404
0.221219
0.223236
0.22483
0.226029
0.226823
0.228009
0.229587
0.231553
0.233491
0.235031
0.236924
0.238805
0.240278
0.241376
0.242102
0.243177
0.244603
0.246367
0.248798
0.251158
0.252826
0.254125
0.255095
0.255736
0.256686
0.257947
0.259503
0.261656
0.263752
0.265239
0.266395
0.26726
0.267832
0.268679
0.269801
0.271194
0.273118
0.275824
0.279514
0.283991
0.288733
0.293329
0.29765
0.301555
0.304835
0.307484
0.309674
0.311531
0.313125
0.314509
0.315722
0.316791
0.31773
0.318546
0.319246
0.319845
0.320348
0.320766
0.321104
0.321371
0.321577
0.321731
0.321842
0.321925
0.321986
0.322028
0.322065
0.322094
0.322122
0.322147
0.322175
0.322201
0.322236
0.322267
0.32229
0.32248
0.322207
0.0966874
0.115165
0.106492
0.0946796
0.0933855
0.0966643
0.104699
0.113291
0.120783
0.127162
0.133045
0.138587
0.144005
0.149367
0.154827
0.160315
0.165884
0.171531
0.176993
0.18194
0.186032
0.189181
0.191682
0.193497
0.194959
0.196072
0.196817
0.197937
0.199451
0.201366
0.204092
0.206853
0.20885
0.210447
0.211654
0.212458
0.213661
0.215276
0.217298
0.220144
0.222974
0.224995
0.226591
0.22779
0.228583
0.229767
0.231341
0.233297
0.23522
0.236745
0.238616
0.240471
0.241921
0.243001
0.243713
0.24477
0.246169
0.247894
0.250266
0.252556
0.254173
0.255429
0.256368
0.256988
0.257907
0.259125
0.260625
0.262692
0.264694
0.266114
0.267217
0.268044
0.26859
0.2694
0.270474
0.271805
0.273639
0.276213
0.279719
0.283974
0.288488
0.292888
0.297063
0.300883
0.304141
0.306816
0.309058
0.310984
0.312662
0.314136
0.315436
0.316585
0.317594
0.318473
0.319229
0.319869
0.320403
0.320841
0.321188
0.321459
0.321658
0.321802
0.321904
0.321972
0.322019
0.322051
0.322078
0.322097
0.322119
0.322138
0.322165
0.322189
0.322222
0.322254
0.322278
0.322467
0.322197
0.0966942
0.115142
0.10645
0.0945993
0.0932646
0.0965242
0.104519
0.113075
0.120539
0.126905
0.132788
0.138343
0.1438
0.149223
0.154784
0.160413
0.166171
0.172054
0.17778
0.182987
0.187301
0.190618
0.193246
0.195152
0.196684
0.197849
0.198627
0.199796
0.201374
0.203365
0.206191
0.209043
0.211099
0.212739
0.213976
0.214799
0.216029
0.217675
0.219734
0.222622
0.22548
0.227516
0.229118
0.230316
0.231108
0.232289
0.233853
0.235794
0.237697
0.239203
0.241045
0.242865
0.244283
0.245336
0.24603
0.247055
0.24841
0.250078
0.252366
0.254563
0.256108
0.2573
0.258186
0.258769
0.259632
0.260772
0.262177
0.264115
0.265986
0.267307
0.268326
0.269088
0.269589
0.27033
0.271313
0.272532
0.27422
0.276599
0.279853
0.28381
0.288027
0.292185
0.296192
0.299937
0.303197
0.305925
0.308247
0.310273
0.312054
0.313635
0.315045
0.3163
0.317406
0.318368
0.319197
0.319896
0.320472
0.320932
0.321287
0.321552
0.32174
0.321863
0.32194
0.321987
0.32201
0.322025
0.322036
0.322047
0.322063
0.322081
0.322105
0.322129
0.322166
0.322201
0.322229
0.322423
0.322156
0.0967042
0.11511
0.106388
0.094482
0.0930862
0.0963151
0.10425
0.112745
0.120154
0.126482
0.132344
0.137891
0.14337
0.148847
0.154513
0.160314
0.16631
0.172517
0.178617
0.184211
0.188863
0.19244
0.195269
0.197314
0.198955
0.200199
0.20103
0.202277
0.203955
0.206067
0.209048
0.212038
0.214183
0.215888
0.217169
0.21802
0.219291
0.220985
0.223097
0.226042
0.228934
0.230982
0.232586
0.233782
0.234573
0.235748
0.2373
0.239219
0.24109
0.242568
0.244364
0.24613
0.2475
0.248515
0.249182
0.250169
0.251469
0.253062
0.255228
0.257284
0.25872
0.259825
0.260648
0.261191
0.261993
0.263051
0.264346
0.266109
0.267785
0.268966
0.269876
0.270561
0.271013
0.271685
0.272573
0.273669
0.275169
0.277271
0.280121
0.283604
0.287361
0.29114
0.294913
0.298573
0.301854
0.304679
0.307139
0.309314
0.311256
0.312991
0.314541
0.315922
0.317149
0.31822
0.319137
0.3199
0.32052
0.321008
0.321377
0.32164
0.321812
0.321916
0.321968
0.321985
0.321984
0.321978
0.321972
0.321973
0.321982
0.321997
0.32202
0.322047
0.322085
0.322123
0.322156
0.322355
0.322094
0.0967176
0.115066
0.106304
0.0943177
0.0928337
0.0960176
0.103861
0.11226
0.119577
0.125824
0.131623
0.137119
0.14258
0.148077
0.153831
0.159809
0.166098
0.172719
0.179358
0.185532
0.190709
0.194704
0.197857
0.200133
0.201956
0.203332
0.20425
0.205624
0.207466
0.209772
0.213002
0.216215
0.218505
0.220313
0.221665
0.22256
0.22389
0.225656
0.227846
0.230876
0.233821
0.235889
0.237499
0.238694
0.23948
0.240644
0.242179
0.244071
0.245905
0.247346
0.249089
0.250798
0.252114
0.253082
0.253716
0.254645
0.255864
0.257351
0.259367
0.261258
0.262559
0.263537
0.264251
0.264717
0.265394
0.26628
0.267359
0.268836
0.270228
0.271191
0.271908
0.272437
0.272781
0.273284
0.27395
0.274784
0.275954
0.277633
0.279956
0.282839
0.286045
0.289478
0.293101
0.296773
0.300152
0.303143
0.305771
0.30809
0.310156
0.312025
0.313728
0.315277
0.316674
0.3179
0.318947
0.319812
0.320504
0.321034
0.321417
0.321668
0.321813
0.321872
0.321879
0.321857
0.321821
0.32179
0.321769
0.321763
0.321769
0.321786
0.321818
0.321852
0.321901
0.321948
0.321994
0.322207
0.321959
0.0967364
0.115006
0.106188
0.0940994
0.0924894
0.0956099
0.103324
0.111578
0.118747
0.124851
0.130512
0.135881
0.141246
0.146683
0.152453
0.158575
0.165174
0.172326
0.179683
0.186733
0.192749
0.197409
0.201098
0.203759
0.205882
0.207481
0.208546
0.210135
0.212251
0.214885
0.218525
0.222087
0.224594
0.226552
0.228003
0.22896
0.230374
0.232234
0.234523
0.237639
0.240612
0.242672
0.244258
0.245427
0.246194
0.247326
0.24881
0.25063
0.252377
0.253741
0.255374
0.256958
0.258166
0.259049
0.259627
0.260476
0.261582
0.262925
0.264702
0.266316
0.267421
0.268257
0.268878
0.269287
0.269894
0.27068
0.271621
0.272822
0.273867
0.274577
0.275104
0.275498
0.27576
0.276146
0.27664
0.27723
0.277991
0.279013
0.280366
0.282149
0.284347
0.287053
0.290374
0.294051
0.297672
0.30099
0.303911
0.306463
0.308671
0.310691
0.312615
0.314412
0.316027
0.31743
0.318611
0.319578
0.32034
0.320915
0.321317
0.321562
0.321676
0.321694
0.321659
0.321585
0.321517
0.321462
0.321431
0.321425
0.321437
0.321467
0.321514
0.321563
0.321635
0.321697
0.321761
0.321993
0.321775
0.0967582
0.114933
0.10605
0.0938239
0.0920588
0.0950961
0.102636
0.110701
0.117647
0.123527
0.128951
0.134078
0.139201
0.144432
0.150055
0.156182
0.163016
0.170723
0.179014
0.187278
0.19453
0.200343
0.204931
0.208234
0.210865
0.212835
0.214144
0.216091
0.218664
0.221843
0.226178
0.230314
0.23319
0.235398
0.237001
0.238047
0.239574
0.241531
0.243884
0.246961
0.249829
0.251804
0.25332
0.254443
0.255183
0.256281
0.257728
0.259514
0.261242
0.262589
0.264201
0.265768
0.26696
0.267826
0.268386
0.269201
0.270253
0.271514
0.273182
0.274652
0.275607
0.276262
0.27669
0.276953
0.27729
0.277674
0.278086
0.27858
0.278927
0.27908
0.279122
0.27913
0.279126
0.27908
0.279032
0.279004
0.279029
0.279091
0.279173
0.279572
0.280821
0.283321
0.286845
0.290916
0.29504
0.298678
0.301611
0.304137
0.306419
0.308575
0.310746
0.312845
0.314752
0.316404
0.317791
0.318921
0.319809
0.320467
0.320906
0.321147
0.321225
0.321201
0.321099
0.320981
0.320885
0.320822
0.320804
0.320818
0.320871
0.320936
0.321034
0.321119
0.321234
0.321329
0.321436
0.321709
0.321547
0.0967838
0.114854
0.105889
0.0935247
0.0915695
0.0945103
0.101851
0.109679
0.116335
0.121932
0.126981
0.131751
0.136423
0.141254
0.146426
0.152272
0.159063
0.167037
0.176148
0.18582
0.194745
0.20194
0.207869
0.212227
0.215739
0.218386
0.220144
0.222775
0.226215
0.230435
0.235978
0.240945
0.244176
0.246511
0.248122
0.249154
0.250614
0.252433
0.254551
0.257223
0.259547
0.261073
0.262204
0.263042
0.263595
0.264425
0.265556
0.266981
0.268371
0.26947
0.270772
0.27201
0.272912
0.273564
0.273987
0.27461
0.275409
0.276372
0.277653
0.27885
0.279743
0.280505
0.281138
0.281575
0.282275
0.283232
0.284417
0.285733
0.286584
0.286983
0.287119
0.287139
0.287101
0.286926
0.286574
0.285963
0.284843
0.283128
0.28085
0.278282
0.277192
0.278241
0.281603
0.286483
0.291436
0.295505
0.298381
0.30089
0.303303
0.305658
0.30811
0.310553
0.312787
0.314702
0.316302
0.317627
0.318692
0.319493
0.320036
0.320335
0.32043
0.32039
0.320253
0.320117
0.32003
0.319999
0.320029
0.320112
0.320245
0.320376
0.320547
0.32069
0.320879
0.321028
0.321193
0.32153
0.321451
0.096811
0.114769
0.105721
0.0932178
0.0910422
0.0938924
0.100998
0.108585
0.114883
0.120142
0.124684
0.129001
0.132981
0.137108
0.141507
0.146523
0.152609
0.160167
0.169583
0.18042
0.19136
0.200761
0.209048
0.215016
0.219846
0.223386
0.225676
0.228987
0.232977
0.237514
0.242176
0.245191
0.246696
0.247505
0.247979
0.24824
0.248626
0.249015
0.249555
0.25028
0.250779
0.251036
0.251212
0.25133
0.251403
0.251529
0.251773
0.252116
0.252431
0.252532
0.252354
0.251942
0.251555
0.251329
0.251204
0.251174
0.251397
0.252326
0.254903
0.258077
0.260534
0.262357
0.263523
0.26422
0.26507
0.266109
0.267181
0.268932
0.271164
0.272799
0.274002
0.274804
0.27528
0.275947
0.27672
0.277391
0.277595
0.276829
0.274235
0.270499
0.269147
0.270978
0.27593
0.282228
0.287932
0.2919
0.294237
0.296129
0.29852
0.301056
0.303745
0.30663
0.309339
0.311696
0.313682
0.315374
0.316779
0.317855
0.318601
0.319043
0.319236
0.319237
0.319142
0.31904
0.319011
0.319056
0.319209
0.31941
0.319664
0.319901
0.32018
0.320413
0.320695
0.320912
0.321166
0.321559
0.321574
0.0968354
0.114689
0.105557
0.0929171
0.0905065
0.0932838
0.100111
0.107511
0.113373
0.118257
0.122257
0.125938
0.129103
0.13219
0.135402
0.138852
0.143208
0.149064
0.157398
0.16843
0.181704
0.192948
0.203214
0.211039
0.216335
0.219814
0.221893
0.224831
0.227852
0.23196
0.23256
0.231085
0.228638
0.225753
0.223379
0.221744
0.219236
0.2159
0.212228
0.207504
0.204772
0.20374
0.204037
0.204635
0.205348
0.206866
0.209577
0.213269
0.216799
0.219351
0.221797
0.223569
0.224363
0.224773
0.225128
0.225274
0.226006
0.226458
0.228215
0.233304
0.239747
0.246612
0.25279
0.257123
0.264245
0.274325
0.287242
0.29952
0.305109
0.306117
0.305582
0.304007
0.302392
0.30026
0.297406
0.294348
0.289852
0.28159
0.269424
0.257354
0.252861
0.255862
0.264939
0.274666
0.281885
0.285624
0.286821
0.287676
0.289799
0.292899
0.296358
0.300197
0.303972
0.307181
0.309826
0.312052
0.313931
0.315434
0.316552
0.317321
0.317774
0.317925
0.317927
0.317893
0.317943
0.31811
0.318404
0.318744
0.319144
0.319513
0.319914
0.320246
0.320628
0.320917
0.321261
0.32169
0.321814
0.0968565
0.114623
0.105423
0.0926381
0.0900389
0.0927281
0.0993295
0.106533
0.111969
0.11655
0.119959
0.122991
0.125332
0.127199
0.128886
0.130278
0.131824
0.134407
0.139724
0.150628
0.164179
0.180984
0.199769
0.218957
0.236532
0.254112
0.268899
0.294601
0.334898
0.376562
0.395237
0.390757
0.381296
0.368243
0.357725
0.350717
0.340117
0.326429
0.309605
0.280627
0.256655
0.242634
0.239269
0.239839
0.241173
0.245597
0.255591
0.271093
0.285986
0.296626
0.305928
0.310983
0.312923
0.313224
0.313069
0.312399
0.310761
0.307748
0.307492
0.310974
0.313589
0.31185
0.306715
0.297933
0.281091
0.260825
0.250379
0.252274
0.261112
0.26885
0.273858
0.27707
0.279029
0.281724
0.284781
0.287562
0.28767
0.283505
0.267274
0.246627
0.23612
0.239402
0.250745
0.26266
0.270882
0.274422
0.27463
0.274441
0.275711
0.279194
0.283479
0.288341
0.293356
0.297629
0.301179
0.304307
0.307146
0.309647
0.311767
0.313476
0.314717
0.315444
0.315833
0.316068
0.316363
0.316742
0.317245
0.31778
0.318355
0.318869
0.319401
0.319835
0.320316
0.320669
0.321095
0.321551
0.321772
0.0968711
0.114574
0.105345
0.0923899
0.0896988
0.0922763
0.0987622
0.105704
0.110919
0.11512
0.118187
0.120555
0.122182
0.123159
0.12306
0.122588
0.121082
0.119315
0.120885
0.12954
0.152374
0.199376
0.295972
0.383291
0.449325
0.496441
0.523502
0.566819
0.60567
0.630145
0.616679
0.582482
0.546691
0.517568
0.496945
0.483905
0.466205
0.444028
0.41714
0.362548
0.307995
0.27819
0.264179
0.264354
0.266025
0.27289
0.291799
0.325897
0.356016
0.377827
0.395548
0.400136
0.396234
0.389534
0.383306
0.373628
0.353362
0.309279
0.231301
0.145016
0.116592
0.109847
0.105096
0.10015
0.0910321
0.083588
0.0823436
0.0872559
0.0992772
0.110211
0.120135
0.128091
0.133438
0.142058
0.154489
0.170917
0.191725
0.21394
0.222425
0.217044
0.218139
0.228684
0.244592
0.256952
0.262935
0.263296
0.260887
0.257082
0.255473
0.256525
0.260409
0.265436
0.2711
0.277212
0.283405
0.289478
0.295204
0.30037
0.304836
0.308466
0.311097
0.312739
0.313693
0.31427
0.314797
0.315366
0.316042
0.31673
0.317442
0.318067
0.318689
0.319186
0.31973
0.320118
0.320595
0.321057
0.321332
0.0968792
0.114551
0.105295
0.0922197
0.0894488
0.091963
0.0983668
0.105114
0.110201
0.114081
0.116917
0.11887
0.119864
0.120061
0.119084
0.116859
0.112854
0.106693
0.104235
0.11584
0.174367
0.329632
0.457186
0.516774
0.548537
0.569549
0.582588
0.607969
0.614373
0.601616
0.562026
0.512713
0.473418
0.440661
0.418438
0.40225
0.382891
0.352651
0.300324
0.227456
0.165213
0.167493
0.180703
0.20115
0.222874
0.253101
0.314694
0.363751
0.437763
0.452283
0.430616
0.375179
0.31866
0.275568
0.241938
0.206591
0.164252
0.122542
0.0971364
0.119072
0.151989
0.1648
0.162872
0.160559
0.160054
0.158947
0.15721
0.154
0.149901
0.147118
0.144814
0.143097
0.142318
0.141773
0.142229
0.142686
0.148043
0.166439
0.18722
0.197885
0.208432
0.223419
0.237607
0.249696
0.254392
0.25318
0.24903
0.242945
0.238465
0.236381
0.236423
0.238673
0.24366
0.251328
0.261842
0.273458
0.284141
0.293305
0.300671
0.306103
0.309648
0.31164
0.312637
0.313151
0.313642
0.314224
0.314962
0.315727
0.316516
0.317197
0.317867
0.31839
0.318959
0.319351
0.319855
0.320311
0.320614
0.0968818
0.114547
0.10525
0.0921145
0.0892655
0.0917531
0.0981055
0.104704
0.109716
0.113384
0.115991
0.117772
0.118213
0.117935
0.116343
0.112863
0.106964
0.0979795
0.0913654
0.112993
0.240097
0.39253
0.470471
0.434537
0.381753
0.38706
0.410495
0.416428
0.405822
0.380046
0.362396
0.3245
0.286726
0.260843
0.240055
0.225862
0.199243
0.15168
0.122431
0.103715
0.10146
0.124918
0.167762
0.194706
0.223413
0.256254
0.316733
0.408423
0.421297
0.400848
0.30731
0.169025
0.107264
0.0900175
0.0908412
0.0997353
0.116707
0.138151
0.210687
0.32534
0.352741
0.34464
0.298046
0.265254
0.230797
0.216102
0.215747
0.218402
0.221451
0.22365
0.22563
0.227565
0.229413
0.23065
0.23014
0.227293
0.213836
0.196513
0.194619
0.193517
0.201023
0.213313
0.223657
0.235977
0.240713
0.241848
0.241799
0.239945
0.236126
0.232256
0.229316
0.22884
0.23208
0.240829
0.253875
0.26861
0.281881
0.292809
0.301113
0.306753
0.309997
0.311462
0.311983
0.312196
0.312559
0.313126
0.313914
0.31474
0.315587
0.316301
0.316997
0.317528
0.318113
0.318507
0.319033
0.319477
0.319808
0.0968853
0.114545
0.105214
0.0920353
0.0891414
0.0916104
0.0979306
0.104419
0.109361
0.112927
0.115308
0.117013
0.117048
0.116486
0.114397
0.110048
0.102893
0.0917943
0.0827216
0.121822
0.274795
0.393016
0.356425
0.308789
0.304266
0.32964
0.365385
0.358438
0.33035
0.302635
0.251044
0.174039
0.132402
0.102297
0.0844035
0.0773554
0.0757047
0.0663526
0.0562883
0.104991
0.133131
0.112481
0.134308
0.177561
0.228863
0.255667
0.327856
0.350131
0.302079
0.195409
0.106251
0.0839136
0.0796208
0.0846932
0.0920985
0.108517
0.145999
0.233012
0.370954
0.425556
0.408258
0.390755
0.332961
0.291561
0.241203
0.22186
0.2244
0.228374
0.232515
0.23688
0.242114
0.248242
0.253139
0.260282
0.269529
0.278379
0.274006
0.244315
0.20841
0.191629
0.193101
0.199859
0.209238
0.223454
0.23111
0.238388
0.245242
0.246893
0.244239
0.238935
0.234167
0.232583
0.235609
0.244975
0.258833
0.273834
0.286502
0.29648
0.303768
0.308337
0.310544
0.311166
0.311164
0.311132
0.311395
0.312024
0.31289
0.313782
0.314675
0.315417
0.31613
0.316671
0.31727
0.317668
0.318218
0.318649
0.319015
0.096891
0.11454
0.10518
0.0919636
0.0890485
0.0915004
0.0977922
0.104199
0.109066
0.112575
0.114776
0.116366
0.116195
0.115339
0.112845
0.107834
0.0997461
0.0869931
0.0766717
0.128928
0.283414
0.359404
0.31263
0.265154
0.247504
0.308055
0.330222
0.267351
0.199984
0.124671
0.0651453
0.0504076
0.0518859
0.0467229
0.0486347
0.0567255
0.0634588
0.0487408
0.0746349
0.117085
0.111292
0.172435
0.255558
0.339816
0.338349
0.312329
0.285794
0.17288
0.105181
0.0984036
0.0866138
0.0812374
0.0834572
0.0888253
0.097742
0.134022
0.217121
0.367255
0.464983
0.439721
0.409973
0.392957
0.326942
0.279299
0.190907
0.148099
0.136135
0.138569
0.147276
0.158484
0.175679
0.193139
0.210884
0.234971
0.256141
0.286322
0.304367
0.285571
0.229731
0.191467
0.18253
0.18692
0.198952
0.216687
0.228937
0.243209
0.253988
0.257155
0.254985
0.24955
0.244784
0.243333
0.246838
0.256371
0.269491
0.283115
0.293604
0.301244
0.306539
0.309498
0.31051
0.310433
0.31005
0.309897
0.310177
0.310907
0.311874
0.312834
0.313771
0.314534
0.315265
0.315817
0.316433
0.316838
0.317414
0.317835
0.318238
0.0968985
0.114518
0.105139
0.0919053
0.0889769
0.0914125
0.0976797
0.104037
0.108842
0.112309
0.114391
0.115859
0.115583
0.114503
0.111689
0.10622
0.0974787
0.0835296
0.072973
0.134497
0.284433
0.338253
0.257234
0.217917
0.205584
0.288789
0.295948
0.17217
0.0950283
0.0398499
0.0243352
0.0275469
0.0240008
0.0217134
0.0325337
0.0523787
0.0607758
0.0489462
0.103112
0.133432
0.144817
0.319707
0.31993
0.360067
0.323354
0.13834
0.0744458
0.086461
0.0787658
0.0743754
0.0677494
0.0642468
0.066952
0.0708635
0.0679748
0.138016
0.277942
0.43777
0.510644
0.421377
0.384882
0.364713
0.239902
0.218708
0.102625
0.0630433
0.0571394
0.0567754
0.0629275
0.0734204
0.0926765
0.109624
0.137684
0.193259
0.232684
0.280291
0.319208
0.30701
0.244535
0.190527
0.173219
0.177363
0.194054
0.214041
0.230648
0.247308
0.258916
0.263127
0.261779
0.257191
0.253328
0.252504
0.256405
0.265753
0.278023
0.290409
0.299157
0.304855
0.308234
0.309653
0.309752
0.309208
0.308673
0.308573
0.308991
0.30987
0.310938
0.311961
0.312935
0.313719
0.314465
0.315029
0.315664
0.316079
0.316681
0.317094
0.317536
0.0968996
0.114513
0.10513
0.0918823
0.0889311
0.0913528
0.0976002
0.103931
0.108696
0.112133
0.114141
0.115521
0.115177
0.113957
0.110928
0.105183
0.0960208
0.0813402
0.0709089
0.137191
0.279141
0.322487
0.2399
0.20228
0.187989
0.235311
0.0529352
0.0594317
0.0567327
0.124299
0.155941
0.236734
0.347482
0.319156
0.341409
0.0471771
0.119519
0.303202
0.46396
0.520752
0.404399
0.362845
0.332615
0.172084
0.104234
0.136913
0.203535
0.269044
0.329111
0.321868
0.254801
0.18885
0.166684
0.171453
0.191897
0.212278
0.230815
0.248121
0.26001
0.265536
0.265499
0.262139
0.258807
0.258193
0.261993
0.270848
0.282377
0.2942
0.302196
0.306677
0.308824
0.309306
0.308919
0.308064
0.307548
0.307539
0.308108
0.309102
0.31025
0.311318
0.312319
0.313115
0.313875
0.314449
0.315099
0.315522
0.316143
0.316557
0.317017
0.0968979
0.114516
0.105134
0.0918616
0.0888626
0.0912622
0.0974792
0.103776
0.108482
0.111871
0.113774
0.115018
0.114574
0.113152
0.109808
0.103669
0.093902
0.0782031
0.0678827
0.139084
0.271593
0.300003
0.201777
0.169
0.158449
0.185169
0.0484196
0.0576761
0.0683455
0.137944
0.160643
0.30891
0.360187
0.318778
0.321149
0.0456124
0.121953
0.345386
0.49386
0.524335
0.378751
0.329629
0.280095
0.131461
0.0458171
0.0595264
0.104473
0.218005
0.32147
0.337549
0.267245
0.184767
0.154981
0.164142
0.188688
0.208051
0.228574
0.246783
0.260182
0.267924
0.270281
0.269265
0.266947
0.266283
0.269309
0.277022
0.287023
0.297558
0.304703
0.308038
0.30871
0.308186
0.306986
0.305962
0.305562
0.305769
0.30665
0.307838
0.309119
0.310259
0.311301
0.312119
0.312903
0.313495
0.314171
0.314613
0.31526
0.315689
0.316165
0.0969002
0.114497
0.105111
0.0918215
0.0887654
0.0911386
0.0973159
0.103571
0.108202
0.111518
0.113302
0.114362
0.113787
0.112111
0.108363
0.101741
0.091243
0.074426
0.0642153
0.139702
0.259458
0.277225
0.177968
0.146206
0.134737
0.135373
0.0526636
0.0638996
0.0608558
0.121764
0.162347
0.330825
0.360375
0.306825
0.30895
0.0785154
0.162572
0.405874
0.523693
0.513055
0.334184
0.279704
0.219739
0.106993
0.0472827
0.0502809
0.060195
0.0976129
0.253623
0.322217
0.263278
0.17028
0.142243
0.159477
0.181021
0.198944
0.220866
0.241648
0.258679
0.2694
0.275419
0.277553
0.277176
0.276138
0.27735
0.281937
0.28993
0.299013
0.304653
0.306309
0.305811
0.304204
0.302755
0.302026
0.3021
0.302924
0.304349
0.305852
0.307326
0.308568
0.309668
0.310526
0.311351
0.311983
0.312705
0.313181
0.313875
0.314326
0.314843
0.096905
0.114475
0.105078
0.0917684
0.0886516
0.0909964
0.0971218
0.103323
0.107867
0.111083
0.112739
0.11357
0.112836
0.110864
0.106652
0.0995128
0.08827
0.0704711
0.0595538
0.134548
0.24275
0.253488
0.152218
0.11916
0.104081
0.100455
0.0536136
0.0692979
0.0679829
0.0632177
0.179971
0.306608
0.323159
0.284655
0.305757
0.0976942
0.209154
0.461072
0.552246
0.455961
0.285589
0.238889
0.205976
0.119665
0.0578289
0.0651357
0.0649886
0.0716258
0.0944141
0.209137
0.204538
0.12772
0.126837
0.145605
0.161877
0.181117
0.210449
0.23899
0.258734
0.272523
0.281532
0.286662
0.287583
0.285536
0.283753
0.284596
0.289374
0.295521
0.298829
0.299249
0.298174
0.296561
0.295781
0.295925
0.297043
0.298908
0.301005
0.302939
0.304669
0.306048
0.307239
0.308166
0.30907
0.309771
0.310571
0.311104
0.311874
0.312353
0.312942
0.0969119
0.114448
0.105031
0.0916884
0.0885059
0.0908166
0.0968734
0.102992
0.107431
0.110492
0.112003
0.112519
0.111577
0.109229
0.104448
0.0967029
0.0847412
0.0661107
0.0533148
0.122409
0.226867
0.238377
0.139083
0.106745
0.0886516
0.0792823
0.0400745
0.060429
0.0611939
0.102373
0.250775
0.238439
0.261941
0.235606
0.271524
0.10039
0.207177
0.454666
0.536797
0.406422
0.267373
0.227429
0.216018
0.151617
0.0565464
0.0612169
0.0514128
0.122751
0.152562
0.151971
0.138674
0.115651
0.102219
0.105649
0.121321
0.155967
0.202204
0.241489
0.266879
0.281375
0.290606
0.294435
0.294305
0.291068
0.286555
0.284345
0.284558
0.284702
0.284119
0.283333
0.282929
0.283196
0.284503
0.286724
0.289551
0.292512
0.295384
0.297852
0.299946
0.301581
0.302982
0.304089
0.305164
0.306011
0.306957
0.307599
0.30851
0.309035
0.309779
0.0969187
0.114431
0.104995
0.0915966
0.0883751
0.0906557
0.0966557
0.102682
0.107033
0.109933
0.111325
0.111539
0.110413
0.107728
0.102471
0.094256
0.0819747
0.0633299
0.0473943
0.101342
0.214067
0.237389
0.147204
0.111295
0.0938237
0.0857008
0.0287268
0.0404669
0.0845897
0.268747
0.337046
0.186523
0.194417
0.191879
0.223789
0.0892976
0.162317
0.421995
0.515138
0.412536
0.280069
0.248076
0.245468
0.198003
0.062343
0.0625855
0.0558452
0.126748
0.184966
0.206239
0.158942
0.113299
0.0879014
0.0721305
0.096771
0.148719
0.20987
0.258825
0.286197
0.296408
0.297663
0.29687
0.292618
0.285182
0.278766
0.274947
0.271445
0.267473
0.2651
0.264949
0.266838
0.270212
0.274079
0.277938
0.281735
0.285324
0.288678
0.291545
0.294011
0.29598
0.297693
0.299065
0.300376
0.301418
0.302551
0.303331
0.304428
0.304999
0.30596
0.0969248
0.114421
0.104971
0.0915239
0.0882931
0.0905534
0.0965171
0.102473
0.106763
0.109562
0.110868
0.110889
0.109639
0.106725
0.101182
0.0927148
0.0803482
0.0622493
0.0443953
0.0806199
0.201691
0.240132
0.164929
0.124582
0.109538
0.106287
0.0296469
0.0719419
0.201007
0.347763
0.35688
0.172865
0.130472
0.15724
0.183328
0.101353
0.157182
0.399262
0.499894
0.420869
0.304788
0.287678
0.288025
0.245989
0.0722135
0.071323
0.0485333
0.0939054
0.141257
0.168618
0.167316
0.10576
0.0759985
0.0630113
0.0955366
0.15264
0.22
0.274259
0.301376
0.304518
0.297777
0.284383
0.272268
0.262856
0.25753
0.255627
0.253733
0.251791
0.2516
0.253686
0.257776
0.262555
0.267328
0.271707
0.275822
0.279645
0.283243
0.286385
0.289148
0.291401
0.293371
0.294958
0.296462
0.29766
0.298943
0.299836
0.30109
0.301692
0.302855
0.0969309
0.114414
0.104945
0.0914646
0.0882299
0.0904802
0.0964108
0.10232
0.106549
0.109287
0.110501
0.110422
0.109043
0.105966
0.100186
0.0916318
0.0791415
0.0617781
0.0433813
0.0618747
0.183578
0.243847
0.193442
0.149942
0.138718
0.13828
0.087433
0.177407
0.265369
0.36538
0.332307
0.172394
0.089393
0.140944
0.164367
0.118551
0.158004
0.379082
0.485727
0.43499
0.32983
0.314393
0.33059
0.293825
0.0802892
0.0827385
0.0507345
0.108065
0.135587
0.155654
0.160207
0.105721
0.0752223
0.0642735
0.0974698
0.154974
0.223458
0.279365
0.306119
0.305949
0.288178
0.264904
0.247699
0.238028
0.235225
0.235976
0.237913
0.239854
0.242833
0.247068
0.252065
0.25718
0.262043
0.266527
0.270762
0.274726
0.278522
0.2819
0.28492
0.28741
0.2896
0.291367
0.293035
0.294369
0.295786
0.296782
0.298174
0.29881
0.300149
0.0969374
0.114395
0.104907
0.0914195
0.0881772
0.0904231
0.0963251
0.102212
0.106389
0.109093
0.110225
0.110095
0.108617
0.105416
0.099472
0.0908718
0.0783099
0.061559
0.0432667
0.0503674
0.163577
0.24409
0.22591
0.174248
0.161572
0.198947
0.230764
0.251653
0.282253
0.353106
0.295649
0.164424
0.0662593
0.137443
0.172048
0.140552
0.160238
0.363065
0.472735
0.449503
0.349251
0.335921
0.360988
0.321388
0.0879796
0.0862384
0.0637224
0.117085
0.139403
0.153755
0.155715
0.108575
0.0787778
0.0679854
0.0992941
0.155176
0.223004
0.278728
0.302149
0.297903
0.274261
0.247837
0.229472
0.22087
0.219886
0.222995
0.228266
0.233255
0.238223
0.243342
0.248458
0.253357
0.258014
0.262426
0.266723
0.270808
0.274768
0.27833
0.281541
0.284204
0.286555
0.28846
0.290254
0.291694
0.293218
0.294297
0.295804
0.296474
0.297958
0.0969381
0.114391
0.104899
0.091406
0.0881434
0.0903836
0.0962651
0.102142
0.106287
0.108967
0.110045
0.109882
0.108342
0.105058
0.0990262
0.0903751
0.077812
0.0614005
0.0436805
0.0430144
0.148667
0.242485
0.243586
0.200571
0.185102
0.222216
0.27161
0.148595
0.118621
0.113985
0.111415
0.115563
0.133065
0.178367
0.215419
0.269397
0.260479
0.282274
0.330942
0.276834
0.16352
0.0595832
0.115833
0.157388
0.139143
0.125017
0.124827
0.104652
0.0415104
0.0101881
0.00811621
0.0101342
0.0170391
0.06187
0.141271
0.160175
0.353009
0.462211
0.460988
0.361248
0.34792
0.388945
0.361081
0.218467
0.0582267
0.0587618
0.0835648
0.0921239
0.0584944
0.0461714
0.0419484
0.052209
0.0930198
0.0847915
0.0754263
0.119635
0.142152
0.156957
0.154683
0.111555
0.0830367
0.0709988
0.0995447
0.152876
0.21807
0.270417
0.290877
0.285274
0.261064
0.235711
0.218871
0.211998
0.212038
0.216615
0.223486
0.229919
0.235771
0.241176
0.246174