/*--------------------------------*- C++ -*----------------------------------*\
| =========                 |                                                 |
| \\      /  F ield         | OpenFOAM: The Open Source CFD Toolbox           |
|  \\    /   O peration     | Version:  v2006                                 |
|   \\  /    A nd           | Website:  www.openfoam.com                      |
|    \\/     M anipulation  |                                                 |
\*---------------------------------------------------------------------------*/
FoamFile
{
    version     2.0;
    format      ascii;
    class       volScalarField;
    location    "0.53";
    object      omega;
}
// * * * * * * * * * * * * * * * * * * * * * * * * * * * * * * * * * * * * * //

dimensions      [0 0 -1 0 0 0 0];


internalField   nonuniform List<scalar> 
374400
(
281.304
306.272
294.855
278.614
276.864
281.561
292.727
304.179
313.799
321.733
328.849
335.385
341.609
347.612
353.562
359.371
365.116
370.798
376.173
380.96
384.881
387.881
390.257
391.978
393.363
394.417
395.122
396.18
397.612
399.419
401.992
404.597
406.478
407.981
409.118
409.873
411.004
412.521
414.418
417.088
419.744
421.641
423.139
424.264
425.008
426.118
427.594
429.429
431.236
432.668
434.427
436.171
437.534
438.551
439.222
440.216
441.534
443.158
445.396
447.565
449.097
450.29
451.181
451.769
452.641
453.797
455.221
457.186
459.094
460.447
461.498
462.285
462.803
463.573
464.59
465.85
467.584
470.007
473.29
477.238
481.374
485.326
488.974
492.203
494.854
496.94
498.625
500.018
501.192
502.191
503.052
503.803
504.458
505.027
505.518
505.935
506.29
506.59
506.84
507.047
507.213
507.342
507.443
507.522
507.582
507.629
507.668
507.699
507.726
507.75
507.775
507.796
507.822
507.846
507.863
508.007
507.792
281.305
306.27
294.85
278.604
276.848
281.543
292.702
304.152
313.774
321.71
328.834
335.379
341.616
347.636
353.605
359.441
365.214
370.927
376.336
381.152
385.096
388.114
390.501
392.231
393.623
394.681
395.388
396.451
397.889
399.703
402.284
404.896
406.781
408.287
409.426
410.183
411.316
412.835
414.734
417.406
420.063
421.96
423.457
424.582
425.325
426.434
427.907
429.74
431.542
432.972
434.726
436.465
437.824
438.838
439.506
440.496
441.809
443.427
445.655
447.813
449.337
450.523
451.409
451.993
452.86
454.007
455.422
457.374
459.27
460.612
461.655
462.436
462.951
463.714
464.723
465.973
467.692
470.098
473.358
477.276
481.384
485.312
488.94
492.157
494.805
496.895
498.584
499.99
501.174
502.186
503.061
503.826
504.495
505.074
505.572
505.997
506.36
506.663
506.918
507.124
507.29
507.418
507.518
507.595
507.655
507.702
507.739
507.769
507.798
507.821
507.845
507.867
507.893
507.917
507.934
508.08
507.865
281.308
306.262
294.835
278.576
276.808
281.499
292.651
304.095
313.718
321.664
328.801
335.366
341.631
347.685
353.701
359.593
365.43
371.216
376.695
381.579
385.575
388.63
391.045
392.793
394.198
395.267
395.98
397.053
398.503
400.332
402.93
405.558
407.453
408.966
410.109
410.869
412.005
413.528
415.432
418.108
420.764
422.661
424.155
425.277
426.019
427.126
428.595
430.42
432.215
433.637
435.38
437.106
438.456
439.461
440.123
441.105
442.405
444.007
446.21
448.343
449.847
451.017
451.89
452.466
453.32
454.451
455.844
457.765
459.627
460.945
461.969
462.736
463.241
463.991
464.983
466.209
467.897
470.257
473.453
477.296
481.325
485.184
488.761
491.943
494.577
496.67
498.375
499.799
501.012
502.054
502.96
503.754
504.448
505.049
505.568
506.009
506.383
506.696
506.954
507.163
507.328
507.454
507.55
507.623
507.679
507.721
507.755
507.782
507.808
507.83
507.855
507.875
507.902
507.926
507.944
508.088
507.874
281.312
306.25
294.812
278.529
276.739
281.421
292.557
303.992
313.613
321.567
328.724
335.315
341.619
347.726
353.812
359.791
365.731
371.632
377.232
382.226
386.31
389.428
391.89
393.67
395.1
396.187
396.912
398.002
399.473
401.327
403.957
406.614
408.526
410.052
411.202
411.966
413.11
414.64
416.553
419.237
421.896
423.792
425.284
426.402
427.141
428.243
429.704
431.517
433.297
434.706
436.432
438.139
439.472
440.463
441.116
442.083
443.361
444.937
447.101
449.19
450.662
451.804
452.656
453.217
454.048
455.148
456.503
458.37
460.18
461.46
462.452
463.193
463.682
464.406
465.363
466.548
468.179
470.464
473.561
477.286
481.196
484.95
488.449
491.585
494.204
496.308
498.041
499.508
500.764
501.853
502.806
503.644
504.379
505.017
505.564
506.031
506.423
506.748
507.01
507.217
507.377
507.497
507.583
507.647
507.694
507.727
507.755
507.778
507.8
507.819
507.841
507.861
507.888
507.913
507.931
508.079
507.866
281.318
306.231
294.775
278.454
276.627
281.294
292.404
303.816
313.427
321.385
328.56
335.179
341.532
347.706
353.885
359.986
366.074
372.148
377.93
383.094
387.317
390.535
393.073
394.904
396.374
397.49
398.234
399.351
400.856
402.751
405.433
408.132
410.073
411.618
412.783
413.555
414.711
416.255
418.182
420.878
423.541
425.434
426.922
428.036
428.771
429.867
431.318
433.116
434.875
436.266
437.965
439.643
440.951
441.922
442.562
443.508
444.758
446.296
448.4
450.422
451.844
452.946
453.767
454.309
455.111
456.172
457.474
459.263
460.99
462.209
463.154
463.862
464.328
465.02
465.934
467.065
468.619
470.79
473.73
477.27
480.992
484.589
487.972
491.044
493.647
495.774
497.551
499.075
500.398
501.559
502.581
503.482
504.273
504.961
505.551
506.05
506.466
506.806
507.076
507.286
507.44
507.552
507.631
507.683
507.719
507.744
507.765
507.78
507.797
507.812
507.833
507.852
507.878
507.903
507.921
508.07
507.859
281.327
306.202
294.718
278.34
276.454
281.097
292.16
303.535
313.118
321.068
328.25
334.892
341.294
347.543
353.837
360.094
366.386
372.705
378.755
384.177
388.613
391.991
394.648
396.563
398.096
399.258
400.032
401.192
402.754
404.715
407.481
410.254
412.241
413.819
415.006
415.793
416.968
418.534
420.485
423.205
425.881
427.776
429.261
430.369
431.099
432.186
433.621
435.395
437.127
438.493
440.157
441.796
443.069
444.011
444.631
445.545
446.751
448.23
450.251
452.184
453.537
454.579
455.352
455.86
456.609
457.6
458.816
460.488
462.097
463.229
464.1
464.751
465.178
465.81
466.645
467.68
469.108
471.113
473.841
477.132
480.612
484.013
487.264
490.28
492.889
495.062
496.906
498.51
499.918
501.164
502.274
503.259
504.126
504.879
505.527
506.072
506.52
506.877
507.153
507.358
507.504
507.599
507.658
507.694
507.712
507.723
507.732
507.741
507.754
507.768
507.786
507.805
507.834
507.861
507.883
508.035
507.827
281.341
306.161
294.635
278.173
276.198
280.802
291.794
303.103
312.631
320.547
327.713
334.357
340.795
347.114
353.533
359.986
366.536
373.197
379.631
385.439
390.204
393.83
396.674
398.718
400.351
401.585
402.407
403.637
405.286
407.353
410.251
413.138
415.196
416.825
418.046
418.854
420.058
421.657
423.644
426.397
429.084
430.976
432.452
433.55
434.274
435.347
436.761
438.503
440.194
441.525
443.137
444.717
445.938
446.84
447.433
448.308
449.457
450.862
452.765
454.563
455.814
456.775
457.489
457.96
458.654
459.568
460.685
462.199
463.635
464.644
465.42
466.002
466.387
466.958
467.711
468.639
469.905
471.674
474.06
476.958
480.059
483.155
486.222
489.175
491.807
494.064
496.022
497.748
499.286
500.656
501.877
502.963
503.925
504.764
505.48
506.075
506.558
506.937
507.224
507.427
507.559
507.64
507.679
507.692
507.691
507.686
507.682
507.683
507.69
507.702
507.72
507.741
507.771
507.801
507.826
507.982
507.778
281.36
306.103
294.521
277.938
275.836
280.382
291.265
302.469
311.899
319.732
326.841
333.44
339.875
346.234
352.768
359.43
366.308
373.413
380.406
386.796
392.076
396.103
399.254
401.513
403.313
404.667
405.568
406.912
408.707
410.944
414.056
417.128
419.304
421.014
422.288
423.129
424.377
426.027
428.066
430.869
433.576
435.468
436.933
438.018
438.731
439.784
441.167
442.868
444.51
445.795
447.345
448.86
450.022
450.876
451.434
452.25
453.318
454.618
456.375
458.016
459.141
459.984
460.6
461.001
461.582
462.343
463.267
464.528
465.714
466.532
467.141
467.589
467.881
468.306
468.87
469.574
470.561
471.973
473.918
476.318
478.971
481.791
484.743
487.715
490.434
492.83
494.927
496.773
498.412
499.891
501.236
502.457
503.554
504.515
505.332
506.007
506.546
506.958
507.254
507.448
507.559
507.604
507.608
507.591
507.563
507.539
507.523
507.519
507.523
507.537
507.562
507.589
507.627
507.664
507.7
507.867
507.673
281.387
306.025
294.366
277.627
275.341
279.805
290.534
301.573
310.842
318.525
325.492
331.967
338.316
344.635
351.218
358.068
365.309
372.997
380.745
388.026
394.135
398.803
402.461
405.079
407.156
408.713
409.747
411.285
413.324
415.848
419.312
422.673
425.023
426.85
428.198
429.085
430.393
432.106
434.206
437.048
439.742
441.599
443.024
444.072
444.757
445.767
447.088
448.702
450.247
451.449
452.884
454.271
455.326
456.097
456.6
457.337
458.297
459.459
460.991
462.379
463.325
464.04
464.57
464.919
465.436
466.104
466.902
467.918
468.8
469.397
469.84
470.171
470.391
470.714
471.129
471.623
472.261
473.116
474.247
475.734
477.556
479.788
482.507
485.498
488.427
491.096
493.436
495.474
497.231
498.834
500.358
501.776
503.047
504.147
505.07
505.824
506.418
506.865
507.176
507.364
507.451
507.464
507.435
507.378
507.325
507.282
507.259
507.254
507.264
507.287
507.325
507.363
507.42
507.469
507.518
507.7
507.529
281.417
305.93
294.18
277.233
274.721
279.077
289.594
300.419
309.437
316.873
323.586
329.807
335.912
342.037
348.501
355.41
362.961
371.291
380.051
388.587
395.928
401.715
406.225
409.442
411.986
413.88
415.135
416.993
419.437
422.437
426.493
430.326
432.973
434.993
436.454
437.405
438.789
440.556
442.672
445.424
447.974
449.722
451.059
452.048
452.698
453.66
454.927
456.485
457.988
459.156
460.551
461.904
462.93
463.674
464.156
464.853
465.753
466.828
468.245
469.488
470.293
470.842
471.199
471.419
471.699
472.017
472.356
472.761
473.044
473.167
473.199
473.204
473.199
473.157
473.116
473.09
473.11
473.159
473.231
473.573
474.626
476.704
479.606
482.935
486.285
489.223
491.581
493.606
495.431
497.151
498.877
500.54
502.044
503.342
504.428
505.311
506.003
506.514
506.854
507.038
507.097
507.077
506.996
506.904
506.83
506.781
506.768
506.78
506.822
506.873
506.95
507.017
507.107
507.181
507.265
507.478
507.351
281.453
305.828
293.963
276.805
274.015
278.244
288.518
299.067
307.752
314.872
321.164
327
332.619
338.335
344.349
351.024
358.619
367.337
377.054
387.103
396.149
403.295
409.089
413.298
416.658
419.172
420.834
423.308
426.522
430.432
435.514
440.019
442.926
445.013
446.449
447.366
448.66
450.266
452.13
454.469
456.494
457.819
458.799
459.525
460.003
460.719
461.695
462.922
464.116
465.059
466.175
467.234
468.005
468.563
468.923
469.455
470.138
470.959
472.049
473.064
473.819
474.46
474.99
475.356
475.939
476.736
477.715
478.788
479.468
479.777
479.872
479.877
479.831
479.672
479.369
478.851
477.913
476.487
474.594
472.461
471.567
472.453
475.256
479.285
483.34
486.644
488.965
490.989
492.932
494.821
496.782
498.726
500.494
502.003
503.259
504.297
505.129
505.752
506.173
506.403
506.474
506.441
506.333
506.227
506.16
506.138
506.162
506.229
506.333
506.436
506.57
506.682
506.83
506.946
507.076
507.339
507.277
281.492
305.718
293.737
276.365
273.251
277.363
287.343
297.613
305.877
312.611
318.318
323.649
328.492
333.443
338.64
344.472
351.415
359.85
370.091
381.537
392.751
402.137
410.234
415.967
420.549
423.878
426.017
429.091
432.768
436.912
441.136
443.851
445.204
445.931
446.356
446.59
446.936
447.283
447.764
448.398
448.821
449.034
449.177
449.27
449.328
449.434
449.643
449.943
450.223
450.319
450.17
449.828
449.512
449.334
449.243
449.239
449.477
450.353
452.671
455.476
457.618
459.187
460.184
460.776
461.498
462.374
463.272
464.749
466.632
468.005
469.007
469.671
470.063
470.61
471.237
471.77
471.911
471.235
469.044
465.905
464.789
466.352
470.516
475.754
480.451
483.686
485.579
487.12
489.066
491.12
493.289
495.602
497.76
499.628
501.195
502.527
503.629
504.47
505.05
505.392
505.539
505.537
505.461
505.382
505.361
505.399
505.521
505.68
505.879
506.066
506.284
506.467
506.687
506.857
507.055
507.363
507.374
281.526
305.614
293.516
275.933
272.474
276.492
286.117
296.18
303.913
310.212
315.281
319.878
323.779
327.546
331.418
335.529
340.645
347.404
356.799
368.863
382.872
394.347
404.545
412.15
417.224
420.525
422.484
425.239
428.053
431.85
432.421
431.073
428.826
426.154
423.939
422.406
420.039
416.87
413.34
408.748
406.065
405.023
405.304
405.874
406.556
408.022
410.626
414.15
417.505
419.926
422.261
423.973
424.766
425.202
425.566
425.744
426.521
427.009
428.767
433.647
439.599
445.829
451.336
455.152
461.341
469.942
480.655
490.455
494.704
495.374
494.842
493.421
492.115
490.37
488.039
485.54
481.821
474.98
464.784
454.513
450.698
453.366
461.214
469.433
475.431
478.499
479.466
480.18
481.949
484.502
487.331
490.448
493.483
496.044
498.144
499.906
501.388
502.57
503.444
504.044
504.393
504.508
504.507
504.481
504.523
504.658
504.891
505.16
505.474
505.763
506.077
506.337
506.636
506.862
507.131
507.466
507.562
281.556
305.528
293.335
275.532
271.793
275.695
285.032
294.868
302.076
308.025
312.378
316.205
319.13
321.448
323.532
325.239
327.127
330.249
336.58
349.188
364.251
382.125
401.175
419.726
436.034
451.731
464.528
485.967
517.777
548.776
562.132
558.976
552.244
542.799
535.056
529.835
521.819
511.287
497.965
474.135
453.494
441.017
438.05
438.58
439.803
443.821
452.739
466.219
478.836
487.67
495.305
499.456
501.086
501.39
501.292
500.81
499.569
497.27
497.165
499.945
501.747
500.139
495.631
488.148
474.245
457.257
448.581
450.435
458.223
464.692
468.828
471.467
473.073
475.28
477.779
480.025
480.073
476.569
462.879
444.987
435.701
438.736
448.845
459.174
466.162
469.114
469.264
469.113
470.216
473.173
476.762
480.796
484.905
488.368
491.228
493.741
496.011
498.001
499.68
501.025
501.995
502.56
502.863
503.048
503.284
503.585
503.983
504.405
504.857
505.26
505.677
506.017
506.393
506.669
507.002
507.358
507.53
281.576
305.466
293.229
275.175
271.297
275.044
284.243
293.751
300.695
306.179
310.121
313.137
315.194
316.425
316.311
315.728
313.834
311.599
313.59
324.337
351.187
400.835
487.178
553.709
599.122
629.576
646.392
672.452
694.967
708.797
701.235
681.655
660.56
642.9
630.093
621.867
610.507
595.996
577.827
538.807
496.793
472.24
460.267
460.411
461.845
467.699
483.477
510.528
533.331
549.323
562.035
565.519
562.884
558.336
554.062
547.227
532.197
497.984
431.261
343.072
308.581
299.413
292.714
285.759
272.828
262.046
260.38
267.958
285.374
300.234
313.129
323.093
329.617
339.878
354.155
372.117
393.653
415.344
423.248
418.148
419.229
429.019
443.349
454.161
459.29
459.568
457.46
454.162
452.798
453.764
457.188
461.538
466.388
471.553
476.728
481.749
486.432
490.613
494.194
497.077
499.149
500.432
501.178
501.632
502.05
502.502
503.038
503.581
504.141
504.632
505.119
505.509
505.934
506.238
506.611
506.973
507.187
281.587
305.436
293.161
274.929
270.931
274.592
283.691
292.953
299.746
304.83
308.495
310.994
312.266
312.522
311.285
308.449
303.258
295.101
291.762
307.164
375.308
513.881
604.339
642.262
661.562
674.077
681.663
696.312
699.967
692.699
669.514
639.57
614.755
593.388
578.465
567.34
553.843
531.795
491.116
428.019
365.512
367.925
381.909
402.66
423.538
451.167
502.406
539.836
591.656
600.855
586.154
547.07
504.291
468.742
439.261
406.695
363.36
314.808
281.877
312.652
351.719
365.309
363.222
360.868
360.378
358.993
356.762
352.747
347.847
344.599
341.97
340.058
339.242
338.802
339.586
340.402
347.15
367.903
389.577
399.953
410.028
424.041
436.936
447.702
451.807
450.737
447.052
441.591
437.548
435.685
435.768
437.887
442.44
449.316
458.547
468.482
477.417
484.937
490.884
495.211
498.004
499.561
500.338
500.743
501.135
501.6
502.186
502.792
503.414
503.949
504.474
504.884
505.33
505.637
506.032
506.389
506.625
281.591
305.43
293.1
274.778
270.663
274.29
283.325
292.398
299.105
303.922
307.304
309.591
310.163
309.813
307.775
303.269
295.455
283.145
273.708
303.499
439.372
560.278
612.97
589.229
552.439
556.155
572.547
576.695
569.419
551.148
538.148
509.331
479.245
457.482
439.123
426.063
400.296
350.055
315.763
291.549
288.143
318.661
368.455
396.728
424.68
454.212
504.677
572.01
580.227
565.689
494.64
367.41
294.297
271.015
272.647
285.381
308.208
335.031
413.784
511.304
531.372
524.582
487.672
460.478
430.442
417.074
416.715
418.965
421.522
423.383
425.136
426.889
428.589
429.685
429.273
426.744
414.467
398.503
396.773
395.484
402.67
414.288
423.908
435.294
439.619
440.709
440.641
438.888
435.353
431.787
429.113
428.743
431.841
439.919
451.608
464.384
475.558
484.544
491.244
495.724
498.269
499.407
499.81
499.981
500.276
500.732
501.36
502.014
502.682
503.244
503.79
504.207
504.666
504.975
505.388
505.735
505.994
281.596
305.427
293.051
274.663
270.481
274.083
283.08
292.011
298.635
303.325
306.422
308.62
308.669
307.954
305.258
299.566
289.939
274.341
260.884
314.889
469.634
560.605
534.006
497.27
493.453
513.495
540.374
535.272
514.151
492.097
448.677
374.611
327.372
288.265
262.639
252.206
250.114
234.928
217.269
293.072
329.009
303.69
330.574
378.079
428.473
452.749
512.616
529.525
491.584
395.633
293.925
262.623
256.161
264.107
275.109
298.049
344.828
434.834
545.922
583.492
571.19
558.661
515.377
482.479
439.704
422.411
424.848
428.314
431.879
435.676
440.309
445.777
450.101
456.364
464.34
471.825
468.199
442.852
410.064
393.318
394.528
400.997
410.058
423.682
430.912
437.662
443.786
445.135
442.616
437.765
433.445
432.094
434.992
443.59
455.9
468.779
479.352
487.505
493.353
496.964
498.683
499.156
499.152
499.132
499.353
499.86
500.551
501.258
501.963
502.546
503.108
503.533
504.003
504.316
504.748
505.086
505.372
281.604
305.421
293.005
274.56
270.345
273.924
282.887
291.713
298.244
302.864
305.733
307.789
307.57
306.473
303.236
296.622
285.602
267.308
251.522
323.731
476.844
536.288
500.397
461.148
445.779
496.618
513.952
463.035
400.905
317.935
232.567
206.02
208.725
198.858
202.883
218.496
230.328
203.094
248.587
309.205
301.894
371.427
451.538
520.899
520.021
500.302
478.736
373.519
293.189
283.471
266.577
258.497
262.343
270.624
283.674
330.925
419.65
543.386
610.254
592.907
572.544
560.487
511.336
472.573
391.273
345.241
331.797
334.766
344.879
357.467
376.069
394.064
411.472
434.028
452.93
478.708
493.388
478.203
429.874
392.849
383.48
387.814
399.939
417.316
428.973
442.101
451.59
454.206
452.129
447.231
442.992
441.795
445.074
453.62
465.032
476.511
485.131
491.312
495.535
497.86
498.636
498.564
498.261
498.15
498.385
498.976
499.747
500.508
501.249
501.85
502.426
502.86
503.345
503.663
504.116
504.447
504.763
281.615
305.392
292.949
274.476
270.24
273.797
282.729
291.492
297.947
302.516
305.233
307.135
306.781
305.39
301.721
294.455
282.436
262.118
245.634
330.496
477.684
520.414
454.34
418.58
406.704
480.84
486.824
372.733
278.759
184.615
147.618
156.089
146.862
140.672
168.931
210.445
225.676
203.291
290.767
329.433
341.872
505.806
506.284
536.696
509.164
335.635
248.743
266.487
254.296
247.27
236.636
230.876
235.922
242.739
238.308
335.646
473.529
592.392
639.07
580.711
555.107
540.318
438.307
418.62
288.623
228.342
218.182
217.634
228.713
246.353
275.724
299.154
334.372
394.415
432.233
473.796
505.299
495.604
443.044
391.594
373.515
377.797
395.074
414.827
430.621
445.795
455.925
459.401
458.061
453.951
450.569
449.935
453.509
461.728
472.229
482.512
489.61
494.177
496.853
497.958
498.021
497.582
497.165
497.097
497.445
498.153
499.005
499.817
500.588
501.206
501.794
502.239
502.739
503.065
503.539
503.864
504.211
281.616
305.386
292.937
274.442
270.173
273.711
282.618
291.348
297.752
302.285
304.907
306.699
306.256
304.679
300.72
293.056
280.382
258.782
242.288
333.72
473.266
508.257
438.944
403.487
389.202
434.631
211.171
223.219
217.87
318.105
355.546
435.09
527.525
505.824
522.572
199.524
312.84
494.22
609.605
645.286
568.989
538.995
515.91
371.977
291.828
333.15
404.705
464.387
513.083
507.409
452.051
389.685
366.362
371.494
392.93
413.157
430.79
446.52
456.877
461.482
461.292
458.257
455.365
454.914
458.359
466.068
475.854
485.607
492.045
495.611
497.302
497.667
497.349
496.668
496.269
496.274
496.745
497.543
498.46
499.308
500.099
500.728
501.328
501.781
502.293
502.626
503.115
503.442
503.803
281.614
305.39
292.943
274.413
270.072
273.58
282.448
291.137
297.467
301.941
304.431
306.049
305.475
303.631
299.24
291
277.369
253.928
237.286
335.969
466.892
490.401
403.04
369.303
357.737
386.249
202.32
220.017
237.943
334.814
361.021
497.653
537.283
505.617
507.338
195.841
315.655
526.841
628.742
647.548
550.71
513.769
473.345
326.277
197.114
222.845
291.88
418.349
507.17
519.52
462.68
385.313
353.219
363.623
389.689
409.074
428.717
445.309
457.022
463.55
465.404
464.416
462.403
461.9
464.621
471.269
479.68
488.324
494.046
496.675
497.185
496.756
495.796
494.988
494.684
494.864
495.585
496.539
497.561
498.467
499.292
499.939
500.559
501.027
501.56
501.909
502.419
502.758
503.133
281.617
305.365
292.912
274.355
269.929
273.4
282.219
290.858
297.094
301.478
303.815
305.198
304.452
302.268
297.318
288.36
273.54
247.957
231.083
336.699
456.453
471.604
378.901
344.026
330.539
331.275
210.417
230.981
225.369
315.077
362.615
515.196
537.587
496.377
497.954
252.913
362.441
570.163
647.184
640.677
517.374
473.21
419.981
295.355
200.303
206.122
224.23
282.333
450.648
507.582
459.168
369.655
338.586
358.564
381.758
400.13
421.471
440.645
455.679
464.824
469.807
471.493
471.113
470.267
471.376
475.329
482.047
489.481
493.982
495.268
494.849
493.553
492.402
491.835
491.912
492.596
493.748
494.956
496.133
497.121
497.995
498.675
499.329
499.829
500.401
500.777
501.326
501.682
502.089
281.624
305.336
292.868
274.278
269.762
273.194
281.946
290.52
296.646
300.906
303.08
304.167
303.211
300.628
295.029
285.279
269.195
241.548
222.944
330.581
441.705
451.21
350.929
311.278
291.447
286.465
212.246
240.009
237.808
229.748
381.351
496.338
509.413
478.351
495.545
282.043
409.966
607.091
664.296
604.217
478.64
438.034
407.069
311.917
220.134
232.965
232.6
243.647
277.727
409.278
404.559
320.833
320.102
342.738
361.276
382.012
411.558
438.216
455.697
467.484
474.985
479.156
479.844
478.115
476.684
477.461
481.524
486.582
489.254
489.573
488.686
487.385
486.772
486.91
487.846
489.371
491.068
492.624
494.009
495.109
496.058
496.796
497.515
498.073
498.709
499.132
499.742
500.122
500.587
281.634
305.302
292.804
274.162
269.548
272.933
281.597
290.068
296.063
300.126
302.116
302.794
301.56
298.464
292.051
281.346
263.945
234.28
211.556
315.685
427.206
437.728
335.763
295.045
269.659
255.507
185.517
224.977
226.331
289.312
449.062
438.201
459.058
435.611
467.28
286.132
407.961
602.841
655.021
570.881
463.522
427.781
416.941
350.279
217.928
226.273
208.379
316.81
352.344
351.627
335.367
306.759
288.629
292.97
313.694
355.191
403.634
440.507
462.71
474.92
482.506
485.567
485.406
482.685
478.968
477.188
477.417
477.585
477.132
476.506
476.19
476.433
477.547
479.405
481.749
484.18
486.522
488.522
490.209
491.523
492.647
493.534
494.395
495.073
495.829
496.342
497.068
497.486
498.077
281.643
305.279
292.755
274.029
269.356
272.7
281.29
289.644
295.53
299.387
301.225
301.509
300.026
296.464
289.355
277.876
259.755
229.524
200.142
288.006
415.162
436.841
345.257
301.086
277.159
265.281
159.283
186.408
263.682
464.405
519.83
388.304
396.335
393.736
424.723
270.677
361.879
580.927
641.753
575.17
474.275
446.589
444.219
399.472
228.426
228.872
216.596
320.966
386.351
407.696
358.778
303.538
268.04
243.677
281.548
347.331
411.306
455.95
478.989
487.233
488.203
487.53
484
477.837
472.495
469.315
466.358
463.021
461.056
460.983
462.664
465.569
468.859
472.111
475.289
478.27
481.035
483.383
485.393
486.991
488.378
489.487
490.546
491.386
492.297
492.923
493.804
494.262
495.03
281.652
305.267
292.722
273.924
269.235
272.551
281.095
289.357
295.168
298.895
300.623
300.652
299.002
295.12
287.584
275.668
257.262
227.647
194.095
257.916
403.194
439.332
365.076
318.119
298.78
294.425
161.345
244.008
402.354
527.761
534.731
374.11
325.971
357.118
385.035
287.856
356.432
565.146
632.216
580.89
494.559
480.564
480.889
444.765
245.161
243.757
202.956
277.56
338.547
369.119
367.715
293.709
250.147
229.068
280.134
351.971
421.125
469.295
491.379
493.703
488.119
477.104
466.962
458.957
454.397
452.778
451.123
449.455
449.343
451.25
454.865
459.028
463.13
466.857
470.336
473.543
476.54
479.139
481.411
483.254
484.862
486.154
487.375
488.347
489.386
490.107
491.119
491.604
492.539
281.66
305.258
292.688
273.838
269.142
272.444
280.945
289.148
294.88
298.53
300.138
300.036
298.211
294.1
286.207
274.106
255.395
226.826
191.996
227.224
385.003
442.698
394.896
348.267
335.217
334.729
268.094
378.405
461.667
540.905
516.163
373.596
271.22
338.466
364.9
310.673
357.341
550.76
623.212
590.43
514.27
502.154
514.664
485.393
257.987
261.77
206.926
297.323
331.967
355.004
360.018
293.913
249.303
231.654
283.011
354.707
424.465
473.674
495.201
494.813
480.079
460.501
445.557
437.014
434.571
435.317
437.1
438.883
441.606
445.428
449.873
454.363
458.584
462.439
466.053
469.411
472.601
475.419
477.922
479.974
481.773
483.22
484.584
485.671
486.824
487.632
488.761
489.276
490.358
281.669
305.233
292.636
273.773
269.065
272.361
280.824
289
294.665
298.272
299.775
299.604
297.643
293.357
285.216
273.004
254.1
226.444
191.75
206.118
363.822
442.928
426.277
374.994
361.378
400.156
430.829
449.569
476.024
531.906
487.153
364.884
234.881
334.37
373.234
337.504
359.809
539.076
614.8
600.144
529.044
518.87
537.627
507.386
269.647
267.066
230.409
309.205
336.543
352.946
355.087
297.944
255.184
238.092
285.619
354.985
424.111
473.203
492.031
488.293
468.404
445.544
429.051
421.21
420.395
423.402
428.333
432.937
437.479
442.107
446.679
451.008
455.083
458.91
462.606
466.093
469.446
472.437
475.115
477.323
479.265
480.832
482.306
483.485
484.73
485.61
486.837
487.381
488.584
281.67
305.228
292.624
273.753
269.015
272.304
280.739
288.904
294.527
298.106
299.536
299.321
297.277
292.874
284.595
272.282
253.321
226.168
192.599
191.406
347.193
441.489
442.433
401.877
386.261
422.591
466.658
346.803
310.689
304.82
301.427
306.845
328.746
379.553
416.457
464.964
457.288
476.059
515.055
471.529
363.84
223.242
307.85
357.41
336.49
319.042
318.627
292.145
187.261
102.513
94.435
102.612
126.41
227.05
338.232
359.714
531.618
608.073
607.632
537.954
527.954
557.76
537.475
418.776
220.736
221.973
262.743
275.386
221.502
198.061
189.325
210.264
277.008
264.887
249.955
312.476
339.741
356.569
353.978
301.927
261.8
243.083
285.994
352.447
419.524
466.214
482.887
477.95
457.142
434.67
419.195
412.815
412.953
417.424
423.919
429.896
435.263
440.161
444.642
448.765
452.679
456.443
460.185
463.78
467.256
470.369
473.166
475.48
477.518
479.168
480.717
481.962
483.273
484.204
485.498
486.07
487.352
281.667
305.237
292.632
273.747
268.942
272.215
280.612
288.764
294.329
297.866
299.189
298.91
296.747
292.17
283.713
271.22
252.213
225.723
194.696
176.039
295.781
434.767
475.404
438.028
423.862
445.625
479.921
459.453
461.269
463.809
475.887
485.774
502.906
502.203
495.445
481.549
428.973
473.732
500.956
450.929
363.739
260.664
234.008
286.169
309.32
318.839
328.936
319.784
252.854
142.631
121.015
134.173
136.376
217.608
326.12
347.392
509.312
600.791
616.82
554.109
546.424
576.092
563.195
451.87
247.068
289.846
316.786
306.287
255.709
235.669
208.879
251.684
270.92
239.018
270.048
314.85
344.202
364.27
355.893
309.414
272.447
249.13
283.146
342.751
404.866
446.607
460.111
454.656
435.632
417.245
405.994
403.361
405.957
412.492
419.894
426.716
432.584
437.485
441.64
445.362
448.963
452.583
456.364
460.126
463.825
467.142
470.125
472.6
474.788
476.566
478.235
479.583
480.997
482.013
483.409
484.035
485.432
281.668
305.218
292.61
273.72
268.843
272.092
280.451
288.577
294.081
297.56
298.75
298.393
296.081
291.277
282.608
269.847
250.805
225.039
197.514
174.458
218.04
393.196
474.539
502.252
519.555
533.782
547.193
569.06
575.296
584.468
605.259
603.746
583.315
530.181
452.512
382.475
401.039
474.264
469.409
437.007
396.688
377.297
345.12
319.837
314.211
311.206
317.278
300.249
205.507
154.066
146.042
156.173
162.138
178.723
252.596
296.183
460.061
580.873
619.987
570.451
563.44
615.033
590.802
495.431
283.724
304.359
333.529
326.692
288.778
263.925
234.43
227.047
225.377
223.094
289.257
320.786
356.62
381.991
364.021
316.355
273.51
243.332
261.691
309.317
359.472
394.446
407.909
407.05
399.852
394.646
394.015
396.609
403.02
410.856
418.472
425.02
430.271
434.361
437.693
440.71
443.809
447.18
450.95
454.877
458.849
462.466
465.742
468.466
470.878
472.845
474.694
476.192
477.764
478.904
480.456
481.16
482.734
281.673
305.196
292.579
273.678
268.737
271.956
280.275
288.351
293.799
297.198
298.243
297.796
295.296
290.261
281.308
268.272
249.046
223.836
198.797
184.702
175.811
255.539
392.731
464.035
505.609
533.957
558.694
594.748
633.855
647.736
619.922
530.128
414.126
325.524
316.377
339.266
420.551
460.242
443.558
436.291
523.519
558.104
546.954
518.359
479.479
373.897
256.227
194.728
169.442
153.999
146.544
180.241
204.453
205.578
206.653
214.52
327.304
522.429
600.957
584.019
589.09
613.071
580.093
484.373
282.077
328.469
361.081
362.816
313.112
278.161
243.702
230.997
234.426
270.325
314.947
344.734
379.561
400.8
375.745
319.561
265.435
210.557
192.525
230.459
282.051
319.926
345.794
363.191
374.433
382.217
389.097
396.273
404.043
411.976
419.085
424.552
428.286
430.81
432.789
434.802
437.263
440.327
444.04
448.094
452.324
456.248
459.85
462.876
465.588
467.817
469.935
471.66
473.479
474.796
476.591
477.401
479.221
281.679
305.17
292.541
273.609
268.618
271.794
280.077
288.064
293.461
296.744
297.627
297.055
294.329
288.987
279.712
266.196
246.57
221.001
198.399
190.9
188.437
227.038
326.122
387.761
426.93
464.96
488.873
524.39
562.091
585.894
573.795
524.958
458.369
391.809
361.053
375.006
418.192
415.321
426.247
555.832
662.471
652.113
650.651
636.214
600.847
450.969
286.971
277.018
260.106
258.258
266.205
277.457
279.004
278.673
277.985
273.18
261.442
309.911
506.957
554.547
564.752
567.269
526.806
444.978
279.864
305.164
348.983
353.894
303.984
271.47
261.159
261.541
273.952
302.462
348.197
378.903
393.226
393.524
368.579
298.607
251.889
233.103
245.331
278.439