/*--------------------------------*- C++ -*----------------------------------*\
| =========                 |                                                 |
| \\      /  F ield         | OpenFOAM: The Open Source CFD Toolbox           |
|  \\    /   O peration     | Version:  v2006                                 |
|   \\  /    A nd           | Website:  www.openfoam.com                      |
|    \\/     M anipulation  |                                                 |
\*---------------------------------------------------------------------------*/
FoamFile
{
    version     2.0;
    format      ascii;
    class       volScalarField;
    location    "0.53";
    object      p;
}
// * * * * * * * * * * * * * * * * * * * * * * * * * * * * * * * * * * * * * //

dimensions      [0 2 -2 0 0 0 0];


internalField   nonuniform List<scalar> 
374400
(
0.705335
0.628162
0.528911
0.482542
0.472276
0.466959
0.456089
0.439898
0.419946
0.398038
0.375529
0.353112
0.330817
0.308979
0.287901
0.267842
0.248572
0.229686
0.211927
0.19635
0.184158
0.175298
0.1686
0.163904
0.160216
0.157514
0.155741
0.153122
0.149733
0.145631
0.140124
0.13489
0.131288
0.128485
0.126448
0.125119
0.123159
0.12063
0.117608
0.113629
0.109998
0.107626
0.105846
0.104598
0.103795
0.102628
0.101185
0.0995407
0.0981223
0.0971094
0.0959592
0.0950116
0.0943907
0.0940354
0.0938238
0.0935343
0.0932686
0.0931053
0.0932164
0.0938055
0.0945116
0.0952121
0.0958444
0.0962907
0.0969984
0.0980916
0.0996357
0.10216
0.105171
0.107595
0.109667
0.11133
0.11246
0.114191
0.116648
0.119885
0.124751
0.132309
0.144121
0.160985
0.182256
0.206435
0.232193
0.257181
0.278207
0.293954
0.304797
0.311399
0.314463
0.314603
0.312303
0.307926
0.301787
0.294173
0.285343
0.275515
0.264882
0.253618
0.241861
0.229723
0.217293
0.204645
0.191834
0.178903
0.165886
0.152806
0.13968
0.126519
0.113326
0.100101
0.0868472
0.0735665
0.060265
0.0469315
0.033581
0.0203004
0.00500863
0.707957
0.630818
0.531602
0.485258
0.475031
0.469759
0.458936
0.442785
0.422859
0.400954
0.378417
0.355941
0.333518
0.311509
0.29017
0.269772
0.250074
0.230675
0.212351
0.196214
0.183545
0.174312
0.167319
0.16241
0.158551
0.155721
0.153862
0.151114
0.147554
0.143241
0.137439
0.131911
0.128104
0.12514
0.122985
0.121578
0.119503
0.116825
0.113617
0.109388
0.105523
0.102994
0.101096
0.0997636
0.0989065
0.0976597
0.0961133
0.0943483
0.0928187
0.091724
0.090481
0.0894532
0.0887762
0.0883842
0.0881508
0.0878316
0.0875313
0.0873336
0.0874127
0.0879913
0.0887052
0.0894211
0.0900702
0.0905306
0.0912625
0.0923903
0.0939847
0.0965955
0.0997113
0.102221
0.10437
0.106094
0.107268
0.109067
0.111618
0.114976
0.120022
0.127855
0.140084
0.157524
0.179502
0.204477
0.231077
0.256881
0.278602
0.294872
0.306066
0.312869
0.316019
0.316163
0.3138
0.309323
0.30306
0.295312
0.286343
0.276378
0.265618
0.254238
0.242379
0.230148
0.217638
0.204923
0.192055
0.179077
0.166025
0.152918
0.13977
0.126592
0.113386
0.100151
0.0868883
0.0736005
0.0602943
0.0469537
0.0335957
0.0203111
0.0050097
0.713264
0.636143
0.536968
0.490696
0.480558
0.475385
0.464665
0.448609
0.428755
0.406883
0.384311
0.361729
0.339096
0.316764
0.294892
0.273817
0.253263
0.232817
0.213327
0.196035
0.182374
0.172362
0.164745
0.15939
0.155174
0.152075
0.150037
0.147021
0.143104
0.138344
0.131923
0.12579
0.121561
0.118265
0.115865
0.114296
0.111979
0.108985
0.105394
0.100651
0.0963116
0.0934683
0.09133
0.089825
0.0888557
0.087445
0.0856945
0.0836889
0.0819418
0.0806882
0.0792635
0.0780819
0.0772976
0.0768376
0.0765612
0.0761808
0.0758143
0.075554
0.0755906
0.0761871
0.0769429
0.0777027
0.0783922
0.0788799
0.0796556
0.0808605
0.0825702
0.0853791
0.0887427
0.0914506
0.0937618
0.0956132
0.0968713
0.0988
0.101538
0.105143
0.110555
0.118952
0.132046
0.150693
0.174166
0.200786
0.22909
0.256518
0.27959
0.29686
0.308728
0.315927
0.31925
0.319395
0.316912
0.312229
0.305711
0.297685
0.288429
0.278187
0.26716
0.255533
0.243453
0.231032
0.218357
0.205498
0.192513
0.179444
0.166317
0.153152
0.139958
0.126745
0.113514
0.100259
0.0869796
0.0736769
0.0603548
0.0470013
0.0336344
0.0203362
0.00501701
0.721223
0.644132
0.545032
0.498885
0.488906
0.483921
0.473397
0.457532
0.437844
0.416079
0.393516
0.370852
0.347937
0.325068
0.302542
0.280508
0.258671
0.236606
0.215276
0.196137
0.180867
0.169586
0.160953
0.154866
0.150064
0.146524
0.144192
0.140735
0.136226
0.130729
0.123279
0.116131
0.111192
0.107338
0.104526
0.102687
0.0999684
0.0964493
0.0922194
0.0866186
0.0814727
0.0780914
0.0755451
0.0737496
0.0725935
0.0709102
0.0688108
0.0663915
0.0642697
0.0627418
0.0610048
0.0595537
0.0585837
0.0580062
0.0576607
0.0571874
0.0567141
0.0563487
0.0562952
0.0568774
0.057674
0.0584994
0.0592591
0.0598034
0.0606748
0.0620186
0.0639259
0.0670575
0.0707997
0.0738248
0.0764224
0.0785065
0.0799275
0.0821088
0.0851892
0.0892385
0.095308
0.104703
0.119285
0.139965
0.165905
0.195216
0.226266
0.256266
0.281429
0.300204
0.313045
0.320773
0.324281
0.324355
0.321621
0.316582
0.309645
0.301169
0.291461
0.280794
0.269375
0.25739
0.244987
0.232283
0.219368
0.206307
0.193156
0.179951
0.166719
0.153473
0.14022
0.126962
0.113695
0.100413
0.0871105
0.0737868
0.0604473
0.047077
0.0336875
0.0203677
0.00502838
0.731806
0.654768
0.555789
0.509843
0.500128
0.495458
0.485279
0.469766
0.450406
0.428903
0.406438
0.38385
0.360718
0.337333
0.313977
0.290696
0.267144
0.24285
0.218908
0.197097
0.179461
0.1663
0.156155
0.148977
0.143297
0.139095
0.136322
0.132201
0.126805
0.1202
0.11121
0.10255
0.0965539
0.0918687
0.0884433
0.0861991
0.0828799
0.0785756
0.0733927
0.0665174
0.0602003
0.0560472
0.0529145
0.0507005
0.0492726
0.047193
0.0445983
0.0415962
0.0389533
0.0370491
0.0348895
0.0330969
0.0318919
0.0311655
0.0307257
0.0301213
0.0295205
0.0290459
0.0289473
0.029639
0.0305839
0.0315505
0.0324355
0.0330639
0.0340692
0.0356405
0.0378731
0.0415524
0.0459764
0.0495318
0.0525566
0.0549693
0.0566056
0.0591131
0.0626687
0.0673383
0.0743303
0.0851386
0.101882
0.125551
0.155128
0.188364
0.223346
0.256922
0.284896
0.305621
0.31967
0.328015
0.331647
0.331533
0.328384
0.322792
0.315232
0.306109
0.295767
0.284464
0.272461
0.259952
0.247086
0.233982
0.220727
0.207383
0.194
0.180614
0.167238
0.153885
0.140556
0.12724
0.11393
0.100613
0.0872842
0.0739351
0.0605692
0.0471734
0.0337594
0.0204129
0.00504339
0.744944
0.667993
0.569204
0.523567
0.51426
0.510091
0.500482
0.485567
0.466803
0.445865
0.424019
0.401509
0.378363
0.354596
0.3304
0.305699
0.280047
0.25287
0.22541
0.199876
0.178862
0.162979
0.150625
0.141844
0.134874
0.129696
0.126272
0.121169
0.114456
0.106204
0.0949068
0.083967
0.0763785
0.0704425
0.0660957
0.0632466
0.0590298
0.053547
0.0469271
0.0381254
0.0300203
0.0246817
0.0206536
0.0178042
0.0159682
0.0132921
0.00992766
0.00601654
0.00256702
8.60237e-05
-0.00272204
-0.00507672
-0.00666441
-0.00762495
-0.00819738
-0.00897672
-0.00977958
-0.010442
-0.0106817
-0.00997546
-0.00889692
-0.00774012
-0.00666464
-0.00588426
-0.00462571
-0.00270117
2.55531e-05
0.0044841
0.00978646
0.0140774
0.0177756
0.0207395
0.0227679
0.0258862
0.0302578
0.0359844
0.0445202
0.0576358
0.0777517
0.105948
0.14091
0.17986
0.220438
0.258945
0.290617
0.313742
0.329117
0.337949
0.341552
0.340961
0.337108
0.330671
0.322204
0.312178
0.300957
0.288864
0.276138
0.262978
0.249541
0.23595
0.222286
0.208602
0.194949
0.181351
0.167814
0.154342
0.14093
0.127557
0.114205
0.100856
0.0875006
0.0741234
0.0607249
0.0472971
0.0338522
0.0204685
0.00506566
0.760518
0.683696
0.58519
0.540005
0.531305
0.527892
0.519163
0.505211
0.487452
0.467511
0.446549
0.424779
0.402109
0.378348
0.353585
0.32749
0.299483
0.268788
0.236766
0.206161
0.180424
0.160671
0.145153
0.134065
0.125225
0.118628
0.114252
0.107718
0.099086
0.0884303
0.073776
0.0595342
0.0496427
0.0418966
0.036217
0.03249
0.02697
0.0197921
0.0111211
-0.00040271
-0.0109773
-0.0179248
-0.0231671
-0.0268825
-0.029281
-0.0327796
-0.037164
-0.0422424
-0.0466821
-0.0498628
-0.0534394
-0.0563786
-0.0583505
-0.05954
-0.0602568
-0.0612299
-0.0621771
-0.0629068
-0.0629896
-0.0617721
-0.0601965
-0.0586221
-0.0572055
-0.0562065
-0.0546098
-0.0521107
-0.048576
-0.0427737
-0.0358259
-0.0302984
-0.0256433
-0.0219628
-0.0194779
-0.0156764
-0.0102914
-0.00325096
0.00723358
0.0233358
0.0480196
0.0824842
0.124944
0.171726
0.2197
0.264406
0.300454
0.326191
0.342808
0.351901
0.355065
0.353601
0.34863
0.340965
0.331249
0.319994
0.307609
0.294432
0.280727
0.266703
0.252523
0.238298
0.224108
0.21
0.196007
0.182149
0.168424
0.154825
0.141327
0.127898
0.11451
0.101136
0.0877523
0.0743449
0.0609134
0.0474468
0.0339624
0.0205342
0.00509076
0.778322
0.701685
0.603574
0.559022
0.551187
0.548871
0.541439
0.528947
0.512774
0.494492
0.475177
0.454916
0.433574
0.410622
0.385901
0.358961
0.328705
0.294046
0.256283
0.218886
0.186474
0.161107
0.140946
0.126435
0.114808
0.106092
0.100297
0.0916175
0.0800984
0.0658195
0.0460855
0.0268267
0.0134469
0.00297288
-0.00470837
-0.00975014
-0.0172218
-0.026949
-0.0387072
-0.0543177
-0.068641
-0.0780697
-0.0851961
-0.0902542
-0.0935128
-0.0982594
-0.104224
-0.11113
-0.117172
-0.121488
-0.126323
-0.13033
-0.133005
-0.134604
-0.135539
-0.136785
-0.138044
-0.139028
-0.139238
-0.137867
-0.135918
-0.133844
-0.131943
-0.130555
-0.128317
-0.124984
-0.120319
-0.112806
-0.104011
-0.0968974
-0.0907378
-0.0858097
-0.082422
-0.0772082
-0.0699791
-0.0605544
-0.0466071
-0.0253804
0.00666685
0.0508828
0.104728
0.163099
0.221501
0.274375
0.315683
0.344099
0.361581
0.370342
0.372403
0.369442
0.362765
0.353362
0.341925
0.32909
0.315223
0.300703
0.28581
0.270762
0.255718
0.240768
0.225987
0.211403
0.197029
0.182907
0.168999
0.155287
0.141726
0.128263
0.114854
0.101463
0.0880576
0.0746195
0.0611512
0.0476376
0.0341043
0.0206122
0.00513333
0.798031
0.72165
0.624076
0.580376
0.573714
0.572907
0.567308
0.556931
0.543127
0.52744
0.510885
0.493517
0.474714
0.454037
0.430832
0.404245
0.372578
0.333966
0.289375
0.243047
0.201263
0.167738
0.140692
0.121044
0.105204
0.0932695
0.0853064
0.0733449
0.0574156
0.0375955
0.0100976
-0.0167907
-0.0354379
-0.0500067
-0.0606686
-0.0676587
-0.0780074
-0.0914515
-0.107658
-0.129109
-0.148704
-0.161497
-0.171117
-0.177921
-0.182292
-0.188634
-0.19654
-0.205614
-0.213408
-0.218898
-0.224938
-0.229708
-0.232783
-0.234538
-0.235557
-0.236879
-0.237973
-0.238489
-0.237443
-0.234035
-0.230434
-0.227079
-0.224202
-0.222219
-0.21909
-0.214256
-0.207553
-0.196783
-0.184151
-0.174319
-0.16619
-0.15984
-0.15559
-0.149118
-0.139933
-0.127963
-0.11019
-0.0829898
-0.0415853
0.0157743
0.0853776
0.159459
0.231117
0.293491
0.340204
0.370737
0.388056
0.395357
0.395176
0.389782
0.380564
0.368733
0.355072
0.340126
0.32434
0.308102
0.291706
0.275377
0.25926
0.243428
0.227927
0.21278
0.197995
0.183556
0.169462
0.155657
0.142066
0.128605
0.115206
0.101819
0.0884021
0.0749366
0.0614306
0.0478655
0.0342717
0.0206918
0.00518648
0.818429
0.742361
0.645449
0.602806
0.597613
0.598731
0.595504
0.587928
0.577371
0.565381
0.55295
0.540038
0.525973
0.509828
0.490779
0.467117
0.436322
0.395256
0.343556
0.286129
0.231366
0.185898
0.148448
0.120904
0.0985669
0.0816473
0.0703465
0.0533443
0.0306041
0.00225022
-0.0371006
-0.0753992
-0.101693
-0.122154
-0.137071
-0.146855
-0.161346
-0.180095
-0.202676
-0.232511
-0.259668
-0.277419
-0.29082
-0.300343
-0.306486
-0.315407
-0.326512
-0.339283
-0.350297
-0.358035
-0.366485
-0.373111
-0.377279
-0.379564
-0.380796
-0.38229
-0.383475
-0.383812
-0.382087
-0.377701
-0.373058
-0.368504
-0.364541
-0.361672
-0.357118
-0.350661
-0.341888
-0.328233
-0.312732
-0.300153
-0.289103
-0.280198
-0.274008
-0.264432
-0.251266
-0.234089
-0.208668
-0.170073
-0.112118
-0.0323062
0.0632366
0.161377
0.251101
0.324373
0.375643
0.406562
0.422121
0.426388
0.422799
0.413937
0.401452
0.386495
0.369965
0.352394
0.334259
0.315965
0.297815
0.280022
0.262711
0.245919
0.229651
0.213905
0.198684
0.183973
0.169747
0.155917
0.142362
0.128963
0.115618
0.102252
0.0888347
0.075344
0.0617902
0.0481577
0.0344896
0.0207901
0.00527312
0.838003
0.762287
0.666106
0.624643
0.62111
0.624416
0.623934
0.61968
0.61307
0.605742
0.598736
0.592015
0.58485
0.576273
0.564933
0.548413
0.522925
0.483408
0.42687
0.357487
0.285994
0.223768
0.170966
0.131385
0.0989147
0.0741014
0.0574299
0.0322653
-0.00141443
-0.0434289
-0.10168
-0.157905
-0.195955
-0.225133
-0.246159
-0.259784
-0.279852
-0.305787
-0.336707
-0.37697
-0.413125
-0.436631
-0.454302
-0.466812
-0.474883
-0.486584
-0.50098
-0.517393
-0.530994
-0.540316
-0.550071
-0.556618
-0.560143
-0.561548
-0.562216
-0.562762
-0.561754
-0.55859
-0.550391
-0.537699
-0.527042
-0.518136
-0.511152
-0.506577
-0.499595
-0.489204
-0.47557
-0.455038
-0.43264
-0.416268
-0.403303
-0.393308
-0.386762
-0.376925
-0.362426
-0.343135
-0.313546
-0.266444
-0.191281
-0.0831895
0.0469864
0.175772
0.286547
0.370953
0.42527
0.454111
0.465019
0.463704
0.454762
0.440961
0.424138
0.405436
0.385595
0.365122
0.34442
0.323854
0.303779
0.284423
0.265854
0.248059
0.231006
0.214634
0.198964
0.184005
0.169711
0.155942
0.142517
0.129258
0.116023
0.102718
0.0893164
0.0758037
0.0621999
0.0484852
0.0347423
0.0208978
0.00538152
0.856114
0.780762
0.685335
0.645115
0.643333
0.648971
0.651456
0.650845
0.648679
0.646749
0.646244
0.647289
0.649328
0.651458
0.65219
0.648515
0.635291
0.604789
0.549226
0.469361
0.376388
0.289038
0.211429
0.152208
0.103664
0.0667581
0.0423178
0.00552479
-0.0444032
-0.106224
-0.190812
-0.269424
-0.320487
-0.3589
-0.386502
-0.404557
-0.431043
-0.46429
-0.503528
-0.554016
-0.599821
-0.631582
-0.656842
-0.675728
-0.688106
-0.706258
-0.729529
-0.756813
-0.78015
-0.795376
-0.810289
-0.81941
-0.822809
-0.822697
-0.821623
-0.818797
-0.813255
-0.803779
-0.785918
-0.765071
-0.750518
-0.73891
-0.730042
-0.723881
-0.714722
-0.703675
-0.690281
-0.671659
-0.651738
-0.634927
-0.619142
-0.605812
-0.596047
-0.580532
-0.559522
-0.531764
-0.489761
-0.422993
-0.314377
-0.153164
0.0368518
0.211069
0.346112
0.437401
0.488286
0.510121
0.513537
0.505337
0.490144
0.470984
0.449379
0.426372
0.402672
0.378789
0.355098
0.331915
0.309655
0.28859
0.268708
0.249858
0.231998
0.214999
0.198884
0.183723
0.169452
0.155855
0.142666
0.129622
0.116541
0.103319
0.0899322
0.0763835
0.0627161
0.0489078
0.0350683
0.0210521
0.00552781
0.872313
0.79731
0.702613
0.663641
0.663603
0.671576
0.677054
0.680166
0.682659
0.686488
0.69314
0.703045
0.71607
0.731771
0.749024
0.764899
0.77336
0.763659
0.720644
0.636968
0.52155
0.405148
0.298404
0.21532
0.145672
0.0910703
0.0541237
-0.00338854
-0.0853494
-0.192314
-0.341402
-0.47423
-0.556596
-0.614817
-0.652707
-0.676205
-0.708746
-0.745452
-0.783298
-0.824069
-0.854826
-0.875175
-0.893193
-0.908824
-0.920093
-0.937806
-0.962436
-0.994078
-1.02162
-1.03971
-1.05776
-1.0671
-1.06918
-1.06739
-1.06532
-1.06081
-1.0504
-1.03215
-0.996968
-0.953372
-0.921719
-0.896743
-0.87872
-0.866939
-0.848645
-0.821988
-0.788264
-0.748489
-0.720361
-0.705834
-0.696797
-0.691074
-0.687608
-0.682723
-0.674358
-0.660462
-0.63317
-0.576676
-0.454413
-0.237191
0.0287472
0.260952
0.426094
0.525113
0.569492
0.579565
0.57039
0.550948
0.526789
0.500716
0.473752
0.446299
0.418853
0.39178
0.365149
0.339343
0.314902
0.292164
0.271086
0.251313
0.232638
0.214971
0.198381
0.183026
0.168855
0.155557
0.142727
0.129996
0.117128
0.104008
0.090638
0.077047
0.0633028
0.0493852
0.0354462
0.0212449
0.00570912
0.885632
0.810885
0.716811
0.678977
0.680521
0.690574
0.698715
0.705226
0.712003
0.721225
0.73474
0.753328
0.777535
0.807674
0.843628
0.883625
0.922236
0.946843
0.932567
0.854444
0.714927
0.557773
0.393581
0.240927
0.09687
-0.0251976
-0.110375
-0.240073
-0.40578
-0.590046
-0.779596
-0.893176
-0.941204
-0.969306
-0.985864
-0.994146
-1.00403
-1.01534
-1.02746
-1.04548
-1.07183
-1.11195
-1.1603
-1.20817
-1.24295
-1.29575
-1.36668
-1.45138
-1.51173
-1.54037
-1.55781
-1.54762
-1.52389
-1.4968
-1.47622
-1.44225
-1.38972
-1.31698
-1.20853
-1.13208
-1.11038
-1.09413
-1.07964
-1.07228
-1.07194
-1.08272
-1.09031
-1.07842
-1.05789
-1.0431
-1.02956
-1.01868
-1.0112
-0.999535
-0.979734
-0.949116
-0.893673
-0.792127
-0.596323
-0.285755
0.0571152
0.337754
0.526934
0.625706
0.655404
0.647925
0.62459
0.594354
0.561755
0.529225
0.497248
0.46588
0.435173
0.405054
0.375424
0.346763
0.319878
0.295399
0.273198
0.252552
0.233115
0.21473
0.197636
0.182114
0.168108
0.155193
0.142796
0.130421
0.117778
0.104756
0.0913902
0.0777374
0.0639043
0.0498677
0.0358302
0.0214389
0.00590672
0.895499
0.82085
0.727227
0.690345
0.693157
0.7048
0.714999
0.724189
0.734366
0.747904
0.766945
0.79268
0.826143
0.868661
0.921256
0.983917
1.05358
1.11826
1.14604
1.08864
0.918634
0.667278
0.344778
0.0385249
-0.207781
-0.374538
-0.478596
-0.613605
-0.732986
-0.835859
-0.974498
-1.08186
-1.11797
-1.14774
-1.17841
-1.20106
-1.23272
-1.2524
-1.25078
-1.19644
-1.12276
-1.13236
-1.18513
-1.26217
-1.32747
-1.44209
-1.63398
-1.90023
-2.07988
-2.14859
-2.17597
-2.13676
-2.06748
-1.99334
-1.9386
-1.84787
-1.69956
-1.48914
-1.19435
-0.883297
-0.700925
-0.618979
-0.607936
-0.616781
-0.651619
-0.734319
-0.856888
-1.02501
-1.15203
-1.21768
-1.25931
-1.28273
-1.29556
-1.31084
-1.32089
-1.31723
-1.27932
-1.16094
-0.858258
-0.377971
0.0942472
0.44074
0.648595
0.734163
0.73988
0.709753
0.669702
0.627608
0.586847
0.548771
0.513496
0.48038
0.448126
0.415886
0.383735
0.352565
0.323628
0.297873
0.274978
0.253915
0.233839
0.214751
0.19702
0.181197
0.167277
0.154709
0.142734
0.130711
0.118291
0.105367
0.0920058
0.0782987
0.0643887
0.050246
0.0361321
0.0215701
0.00609644
0.902233
0.827565
0.734208
0.69809
0.70181
0.714528
0.726171
0.737245
0.749829
0.766455
0.789414
0.820281
0.860444
0.911903
0.976825
1.05664
1.15101
1.25019
1.32086
1.29141
1.08887
0.728499
0.310439
-0.0104149
-0.237602
-0.392257
-0.491803
-0.60797
-0.702207
-0.874094
-1.21948
-1.44964
-1.53312
-1.57675
-1.60294
-1.61385
-1.61474
-1.57978
-1.49327
-1.25449
-0.987226
-0.972033
-1.10156
-1.34698
-1.55625
-1.89408
-2.29396
-2.67828
-2.82143
-2.81928
-2.74777
-2.62345
-2.50224
-2.39468
-2.31591
-2.18551
-1.96667
-1.61826
-1.01802
-0.820815
-1.03033
-1.17717
-1.26001
-1.30533
-1.35464
-1.37195
-1.3629
-1.33011
-1.3046
-1.29277
-1.28738
-1.28396
-1.28132
-1.27741
-1.27038
-1.26054
-1.23844
-1.12866
-0.827648
-0.316763
0.188624
0.55396
0.759791
0.82722
0.808164
0.757736
0.702851
0.650326
0.602631
0.560933
0.52466
0.491569
0.458817
0.425024
0.390714
0.357591
0.327329
0.300826
0.277423
0.256073
0.235298
0.215373
0.196896
0.180613
0.166601
0.154228
0.142562
0.130826
0.118603
0.105773
0.0924299
0.0786876
0.0647225
0.0504947
0.0363319
0.0216223
0.00625791
0.906779
0.832048
0.73885
0.703316
0.707659
0.721089
0.733724
0.746097
0.760328
0.779094
0.804754
0.839147
0.883963
0.941586
1.01501
1.10677
1.2186
1.34312
1.44831
1.43883
1.22182
0.842641
0.516607
0.262046
0.0678183
-0.0952167
-0.266473
-0.530992
-0.887855
-1.33291
-1.74463
-1.78008
-1.75894
-1.77406
-1.81064
-1.8325
-1.85614
-1.85147
-1.77582
-1.46566
-1.03761
-1.08292
-1.31941
-1.67286
-1.96226
-2.41708
-2.90713
-3.27594
-3.26283
-3.12426
-2.92644
-2.7545
-2.62535
-2.51713
-2.43473
-2.29567
-2.08772
-1.82919
-1.56558
-1.62744
-1.66224
-1.61286
-1.52943
-1.48024
-1.4092
-1.32526
-1.2407
-1.17803
-1.16968
-1.18532
-1.20696
-1.22456
-1.23509
-1.24775
-1.24468
-1.22926
-1.1838
-1.09089
-0.78688
-0.256914
0.265062
0.641742
0.844641
0.896706
0.857992
0.791487
0.725098
0.664957
0.613189
0.569978
0.533418
0.500144
0.466577
0.431493
0.395976
0.362146
0.331598
0.304877
0.280945
0.258999
0.237159
0.216111
0.196759
0.179973
0.165861
0.153662
0.142277
0.1308
0.118756
0.106018
0.0926992
0.0789359
0.0649329
0.0506424
0.0364525
0.0216196
0.00638658
0.909925
0.835127
0.742033
0.706936
0.711704
0.725628
0.738956
0.752244
0.767625
0.78789
0.815453
0.852309
0.900381
0.962312
1.04163
1.14167
1.2656
1.40812
1.53817
1.54462
1.32785
1.01888
0.825579
0.596662
0.368614
0.115768
-0.274948
-0.953301
-1.60526
-1.91692
-2.06591
-1.9096
-1.82964
-1.80364
-1.81403
-1.82922
-1.86024
-1.86002
-1.8332
-1.49651
-1.07668
-1.13782
-1.39124
-1.87543
-2.30317
-2.89752
-3.41683
-3.65791
-3.48584
-3.2574
-2.98565
-2.75892
-2.59293
-2.46897
-2.38496
-2.28102
-2.17202
-2.08786
-2.12611
-2.02039
-1.74863
-1.42921
-1.18967
-1.09822
-1.04683
-1.02786
-1.00187
-1.00616
-1.05672
-1.1182
-1.18267
-1.23724
-1.27215
-1.30793
-1.31872
-1.33009
-1.32264
-1.21143
-0.830129
-0.242277
0.308963
0.701111
0.904671
0.946231
0.89295
0.814786
0.740754
0.676305
0.622758
0.578855
0.541773
0.507579
0.472598
0.436189
0.399917
0.366024
0.335672
0.308902
0.284713
0.2617
0.238685
0.21653
0.196404
0.179248
0.165111
0.153098
0.141967
0.130714
0.118823
0.106164
0.0928685
0.0790924
0.0650639
0.0507275
0.0365229
0.0215901
0.00648634
0.912371
0.837526
0.74452
0.709764
0.714858
0.729174
0.743048
0.757058
0.773345
0.794789
0.823855
0.862645
0.913272
0.978579
1.06249
1.16893
1.30218
1.4587
1.60772
1.62876
1.42633
1.2235
1.20323
0.996612
0.689541
-0.238229
-1.138
-1.77452
-2.28095
-2.14973
-2.04187
-1.91257
-1.85897
-1.8367
-1.85329
-1.87496
-1.90853
-1.91287
-1.87731
-1.57368
-1.16972
-1.2093
-1.52466
-2.29545
-2.88857
-3.30744
-3.64831
-3.47027
-3.29825
-3.18844
-2.95466
-2.71219
-2.55176
-2.41553
-2.30461
-2.21495
-2.20613
-2.34096
-2.50698
-2.06493
-1.47591
-0.97037
-0.839526
-0.864702
-0.969938
-1.13087
-1.18182
-1.17993
-1.21893
-1.2951
-1.3928
-1.4994
-1.58196
-1.63494
-1.62646
-1.64219
-1.62069
-1.42699
-0.916883
-0.251989
0.333463
0.743423
0.950232
0.984519
0.920073
0.833424
0.754192
0.687063
0.63251
0.587913
0.549906
0.514352
0.47776
0.440131
0.403328
0.36951
0.339392
0.312517
0.287932
0.263891
0.239788
0.216648
0.195887
0.178475
0.164373
0.152555
0.14166
0.130607
0.118849
0.106259
0.0929862
0.0792016
0.0651541
0.0507817
0.0365675
0.0215504
0.00656752
0.914149
0.839286
0.746336
0.711817
0.717157
0.731771
0.746045
0.760585
0.77754
0.799848
0.830023
0.870236
0.922734
0.990503
1.07773
1.18875
1.32857
1.49491
1.65703
1.68948
1.50886
1.40941
1.55929
1.53008
1.42241
-0.65327
-3.51691
-2.00738
-2.39086
-2.03641
-2.03773
-1.91015
-1.86132
-1.84739
-1.85526
-1.86472
-1.90745
-1.9206
-1.91278
-1.66567
-1.29132
-1.34633
-1.6418
-2.81851
-4.08836
-3.39315
-3.69969
-3.47308
-3.32325
-3.17152
-2.92063
-2.66886
-2.55898
-2.57926
-2.26701
-2.11646
-2.2072
-2.51823
-2.62513
-1.8568
-0.98616
-0.43045
-0.824356
-1.59918
-1.26236
-1.28181
-1.24797
-1.20692
-1.239
-1.3243
-1.45571
-1.70905
-1.9679
-1.87184
-1.88769
-1.97929
-1.96745
-1.68239
-1.02635
-0.280241
0.340138
0.768994
0.981389
1.01175
0.939976
0.848128
0.765744
0.697004
0.641701
0.596277
0.557091
0.519975
0.481897
0.443279
0.406104
0.372367
0.342288
0.31527
0.29023
0.265512
0.240375
0.216483
0.195278
0.177728
0.163704
0.152073
0.141383
0.130496
0.118846
0.106312
0.0930576
0.0792681
0.0652081
0.0508094
0.03659
0.0215078
0.00662587
0.915296
0.840454
0.747561
0.713155
0.718657
0.733478
0.74802
0.762908
0.780303
0.803181
0.834086
0.875237
0.928965
0.998349
1.08775
1.20173
1.34577
1.51838
1.68887
1.72778
1.56297
1.53746
1.80008
1.95875
2.06069
0.850385
-1.86321
-1.9125
-1.92465
-1.94332
-1.73257
-1.43553
-1.50462
-1.70733
-2.41833
-2.05455
-2.02271
-2.19866
-2.6191
-2.63962
-1.65086
-0.609387
-0.0383459
-0.345984
-2.33598
-1.94716
-2.01887
-2.17374
-2.19545
-1.86768
-1.11216
-0.307127
0.339781
0.783436
1.00096
1.02933
0.953201
0.858314
0.774039
0.704266
0.648401
0.602327
0.562188
0.523883
0.484749
0.445439
0.40807
0.374317
0.344168
0.317008
0.29162
0.266329
0.240647
0.21628
0.194803
0.177182
0.163226
0.15173
0.141184
0.130411
0.118835
0.106339
0.0930982
0.0793064
0.0652386
0.0508236
0.0366001
0.0214759
0.0066633
0.916959
0.842197
0.749421
0.715117
0.720861
0.736002
0.750945
0.766348
0.784398
0.808118
0.840107
0.882649
0.938196
1.00996
1.10254
1.22087
1.37102
1.55273
1.73548
1.78306
1.65059
1.73945
2.16461
2.57073
2.85105
2.53734
-1.86563
-1.92208
-1.94496
-2.02482
-1.86982
-1.70776
-1.71969
-1.75256
-1.97428
-1.95758
-1.95582
-2.19648
-2.72827
-2.57083
-1.25871
-0.0491744
0.419843
0.191022
-1.9641
-1.98871
-2.16815
-2.39916
-2.50636
-2.14575
-1.25279
-0.358529
0.332165
0.801012
1.02852
1.05487
0.973313
0.874533
0.787691
0.716371
0.659532
0.612222
0.570393
0.530098
0.489346
0.448965
0.41138
0.377455
0.347019
0.319496
0.293486
0.267355
0.240869
0.215838
0.193994
0.176297
0.162464
0.151188
0.140865
0.130269
0.118806
0.106368
0.0931483
0.0793544
0.0652758
0.0508381
0.0366074
0.0214227
0.00671713
0.919096
0.844465
0.751831
0.717638
0.723701
0.739271
0.754739
0.77081
0.789712
0.814529
0.847927
0.892276
0.950174
1.025
1.12161
1.24533
1.40289
1.59543
1.79311
1.85378
1.77488
1.99419
2.59367
3.1984
3.6238
3.55306
-1.88708
-1.95958
-2.02362
-2.15742
-2.08574
-1.97002
-1.90528
-1.71271
-1.71813
-1.8576
-1.88569
-2.22064
-2.79056
-2.31969
-0.701819
0.54189
0.722606
0.431491
-2.1423
-2.16626
-2.33572
-2.58496
-2.76964
-2.43269
-1.4297
-0.445626
0.303913
0.813844
1.05982
1.08781
1.00184
0.899178
0.80924
0.735692
0.676764
0.627127
0.582452
0.539256
0.496356
0.454837
0.416668
0.382271
0.350986
0.322468
0.295278
0.268002
0.240557
0.214826
0.192651
0.174953
0.161345
0.150398
0.140391
0.130036
0.118725
0.106368
0.0931793
0.0793869
0.0652988
0.050834
0.0365979
0.0213293
0.00678531
0.921675
0.847202
0.754752
0.720694
0.727134
0.743226
0.759337
0.776222
0.796163
0.822312
0.857421
0.903963
0.964699
1.04319
1.14455
1.27448
1.44026
1.64429
1.85797
1.93734
1.91596
2.25814
2.99799
3.72884
4.23232
4.2554
-1.94227
-1.99284
-2.09366
-2.19937
-2.17784
-2.11095
-1.98168
-1.58626
-1.45381
-1.67932
-1.73391
-2.16935
-2.69881
-1.94892
-0.164199
0.994115
0.813795
0.479735
-2.15279
-2.26138
-2.45771
-2.69381
-2.93171
-2.61976
-1.60164
-0.564272
0.253871
0.820552
1.09598
1.12706
1.03867
0.933362
0.840336
0.763534
0.700993
0.647473
0.598684
0.55171
0.506105
0.463232
0.424312
0.388858
0.355999
0.325727
0.296782
0.26809
0.239633
0.213256
0.190815
0.173188
0.159894
0.149363
0.139747
0.129689
0.118567
0.10631
0.0931656
0.0793827
0.0652904
0.0507971
0.0365607
0.0211796
0.00687335
0.92512
0.850803
0.758582
0.724777
0.731704
0.748479
0.765455
0.78343
0.804767
0.832699
0.870091
0.919555
0.984035
1.06729
1.17468
1.31208
1.48699
1.70237
1.93296
2.0413
2.06329
2.46938
3.27721
4.06657
4.60961
4.65191
-1.95547
-1.94465
-1.95975
-1.99801
-2.02103
-1.96235
-1.77353
-1.25191
-0.975891
-1.19973
-1.2994
-1.71962
-2.2538
-1.66556
-0.0265182
0.94756
0.519729
0.254321
-2.0513
-2.18901
-2.31778
-2.48803
-2.73598
-2.57476
-1.69358
-0.704393
0.162728
0.787841
1.10392
1.15797
1.08359
0.984369
0.890636
0.809398
0.740459
0.680072
0.624424
0.571451
0.521759
0.476665
0.436344
0.398507
0.362799
0.329753
0.298218
0.267519
0.237818
0.210828
0.188239
0.170812
0.157929
0.147898
0.138759
0.129073
0.118196
0.106082
0.0930158
0.0792688
0.0651931
0.0506722
0.0364555
0.0208857
0.00701883
0.928357
0.85407
0.762016
0.728582
0.735955
0.753329
0.771104
0.790099
0.812738
0.842329
0.881835
0.933994
1.00189
1.08939
1.20195
1.34523
1.52609
1.74651
1.98595
2.12369
2.13303
2.45088
3.19146
3.96961
4.53977
4.59463
-1.8723
-1.85429
-1.82825
-1.86899
-1.76525
-1.51514
-1.32412
-0.86543
-0.43273
-0.785345
-0.928306
-1.28607
-1.8603
-1.57584
-0.196922
0.525163
-0.13157
-0.344545
-2.19818
-2.26414
-2.2768
-2.31493
-2.37857
-2.1903
-1.55445
-0.719662
0.0915684
0.710067
1.0578
1.16543
1.12683
1.04071
0.947216
0.860069
0.782964
0.714134
0.650318
0.590168
0.535378
0.486917
0.44367
0.403384
0.365973
0.33164
0.299152
0.267595
0.236995
0.209435
0.186607
0.169119
0.156387
0.146616
0.137735
0.128272
0.117582
0.105611
0.0926528
0.0789799
0.0649572
0.0504284
0.0362657
0.020454
0.00719751
0.93054
0.856221
0.764263
0.731137
0.738801
0.756561
0.774869
0.794552
0.818062
0.848764
0.889682
0.94363
1.01377
1.10405
1.21987
1.36663
1.55032
1.77152
2.01144
2.17375
2.16526
2.34037
2.91582
3.58697
4.13737
4.15123
-1.98284
-1.92376
-1.86741
-1.81604
-1.52909
-1.08402
-0.979371
-0.736694
-0.251509
-0.708024
-0.872707
-1.17441
-1.72263
-1.59643
-0.515322
-0.118353
-0.851301
-0.999847
-2.2808
-2.31793
-2.31157
-2.31154
-2.28918
-2.06912
-1.44169
-0.690685
0.0486655
0.654902
1.03321
1.18106
1.16704
1.08785
0.991301
0.897352
0.812885
0.736914
0.666317
0.600693
0.542178
0.491015
0.445696
0.404385
0.366757
0.332658
0.300236
0.268356
0.237375
0.209316
0.18605
0.168301
0.155511
0.145805
0.137023
0.127656
0.117068
0.105194
0.0923198
0.0787095
0.064735
0.0502065
0.0360965
0.0200889
0.00734311
0.932201
0.857849
0.765967
0.733087
0.740966
0.759018
0.777733
0.797941
0.822118
0.853667
0.895658
0.950965
1.02281
1.11516
1.23339
1.38262
1.56802
1.78877
2.02568
2.20424
2.19539
2.2289
2.58973
3.05831
3.48673
3.3095
-1.91738
-1.8986
-1.82741
-1.66935
-1.27193
-0.810535
-0.782126
-0.731557
-0.302072
-0.809486
-0.95721
-1.20072
-1.699
-1.69748
-0.968649
-0.841265
-1.50948
-1.61578
-2.32004
-2.32329
-2.29426
-2.29301
-2.23591
-1.995
-1.41544
-0.68255
0.0164382
0.619035
1.02324
1.20211
1.20379
1.1269
1.02554
0.925056
0.834299
0.752459
0.676765
0.607442
0.54665
0.493932
0.447499
0.405591
0.367905
0.333802
0.301343
0.269255
0.23797
0.209473
0.185812
0.167805
0.154914
0.145218
0.136483
0.127164
0.116636
0.104831
0.0920224
0.0784643
0.064532
0.0500075
0.0359434
0.0197766
0.00745794
0.933376
0.859013
0.767171
0.734462
0.7425
0.760766
0.779771
0.800351
0.825
0.857152
0.899907
0.956177
1.02922
1.12303
1.24293
1.39382
1.5802
1.80013
2.03333
2.21791
2.22814
2.1643
2.30694
2.48459
2.74991
1.58055
-2.47659
-1.82322
-1.63795
-1.43936
-1.05529
-0.729099
-0.703285
-0.684539
-0.341478
-1.01975
-1.09386
-1.27693
-1.7182
-1.80805
-1.35492
-1.35882
-1.96274
-2.20378
-2.35659
-2.31239
-2.30699
-2.28944
-2.2104
-1.95297
-1.39768
-0.689031
-0.00348938
0.599969
1.02338
1.22081
1.22987
1.15241
1.04687
0.941603
0.846515
0.760909
0.682326
0.61119
0.549488
0.496158
0.44927
0.407051
0.369267
0.335053
0.302423
0.270097
0.238541
0.209721
0.185763
0.167547
0.154556
0.14484
0.136118
0.126816
0.116313
0.104548
0.0917851
0.0782652
0.0643655
0.0498458
0.0358176
0.0195336
0.0075356
0.934116
0.859776
0.767979
0.735341
0.743484
0.761897
0.781092
0.801912
0.826868
0.859409
0.902659
0.959553
1.03337
1.12812
1.24909
1.40103
1.58801
1.80733
2.03774
2.22384
2.25323
2.14377
2.13988
2.07909
2.07447
-0.0670662
-3.52075
-2.26793
-2.26667
-1.42007
-0.899265
-0.734623
-0.789944