/*--------------------------------*- C++ -*----------------------------------*\
| =========                 |                                                 |
| \\      /  F ield         | OpenFOAM: The Open Source CFD Toolbox           |
|  \\    /   O peration     | Version:  v2006                                 |
|   \\  /    A nd           | Website:  www.openfoam.com                      |
|    \\/     M anipulation  |                                                 |
\*---------------------------------------------------------------------------*/
FoamFile
{
    version     2.0;
    format      ascii;
    class       volScalarField;
    location    "0.56";
    object      omega;
}
// * * * * * * * * * * * * * * * * * * * * * * * * * * * * * * * * * * * * * //

dimensions      [0 0 -1 0 0 0 0];


internalField   nonuniform List<scalar> 
374400
(
281.717
307.336
296.318
279.652
277.228
281.696
292.716
304.602
314.659
322.89
330.111
336.66
342.801
348.63
354.362
359.984
365.539
371.008
376.148
380.675
384.335
387.106
389.286
390.861
392.127
393.084
393.724
394.688
395.986
397.627
399.977
402.368
404.101
405.492
406.542
407.24
408.29
409.697
411.459
413.946
416.431
418.212
419.625
420.685
421.385
422.439
423.838
425.584
427.313
428.689
430.384
432.067
433.39
434.374
435.022
435.99
437.272
438.852
441.036
443.157
444.656
445.83
446.703
447.278
448.137
449.276
450.678
452.62
454.512
455.855
456.906
457.692
458.207
458.981
460.005
461.271
463.024
465.483
468.856
473.027
477.549
482.032
486.332
490.278
493.605
496.248
498.362
500.081
501.506
502.704
503.723
504.603
505.366
506.029
506.601
507.091
507.507
507.86
508.157
508.404
508.606
508.766
508.893
508.991
509.067
509.125
509.172
509.209
509.24
509.266
509.293
509.314
509.339
509.362
509.378
509.516
509.308
281.719
307.334
296.312
279.642
277.212
281.677
292.691
304.575
314.632
322.866
330.095
336.654
342.808
348.653
354.405
360.053
365.637
371.138
376.312
380.869
384.552
387.341
389.533
391.116
392.389
393.352
393.994
394.962
396.266
397.915
400.273
402.672
404.409
405.803
406.855
407.554
408.607
410.017
411.78
414.269
416.756
418.536
419.949
421.008
421.708
422.76
424.158
425.901
427.625
428.998
430.689
432.367
433.686
434.666
435.311
436.276
437.553
439.126
441.299
443.41
444.901
446.067
446.935
447.505
448.36
449.49
450.883
452.812
454.691
456.024
457.067
457.846
458.357
459.125
460.14
461.396
463.134
465.573
468.923
473.063
477.556
482.012
486.293
490.229
493.554
496.201
498.321
500.051
501.488
502.697
503.73
504.623
505.401
506.074
506.655
507.153
507.577
507.935
508.237
508.485
508.688
508.847
508.972
509.069
509.144
509.202
509.247
509.282
509.314
509.34
509.366
509.388
509.413
509.437
509.452
509.591
509.384
281.721
307.325
296.297
279.614
277.171
281.631
292.638
304.516
314.574
322.816
330.059
336.639
342.82
348.7
354.499
360.203
365.853
371.427
376.673
381.298
385.034
387.862
390.083
391.685
392.972
393.945
394.594
395.572
396.889
398.552
400.929
403.344
405.092
406.494
407.55
408.253
409.309
410.724
412.492
414.986
417.473
419.252
420.663
421.72
422.418
423.468
424.862
426.598
428.315
429.681
431.361
433.027
434.336
435.308
435.948
436.904
438.169
439.726
441.875
443.959
445.43
446.581
447.437
447.999
448.841
449.955
451.326
453.224
455.069
456.378
457.402
458.167
458.669
459.423
460.42
461.654
463.36
465.753
469.037
473.099
477.509
481.891
486.116
490.014
493.321
495.97
498.103
499.853
501.315
502.554
503.617
504.541
505.345
506.042
506.645
507.16
507.598
507.967
508.275
508.527
508.73
508.889
509.01
509.102
509.173
509.226
509.268
509.299
509.328
509.352
509.377
509.398
509.423
509.446
509.462
509.601
509.394
281.725
307.313
296.273
279.567
277.098
281.55
292.542
304.41
314.463
322.712
329.976
336.583
342.805
348.736
354.605
360.397
366.151
371.843
377.211
381.948
385.774
388.667
390.936
392.572
393.885
394.876
395.537
396.532
397.871
399.562
401.972
404.417
406.184
407.598
408.664
409.371
410.435
411.857
413.635
416.138
418.628
420.408
421.816
422.871
423.567
424.612
425.999
427.725
429.428
430.782
432.444
434.092
435.383
436.341
436.972
437.914
439.157
440.688
442.798
444.841
446.28
447.403
448.237
448.785
449.604
450.688
452.021
453.865
455.658
456.928
457.92
458.66
459.145
459.873
460.835
462.026
463.674
465.989
469.171
473.11
477.393
481.663
485.802
489.65
492.939
495.596
497.755
499.545
501.051
502.335
503.445
504.413
505.26
505.996
506.63
507.172
507.632
508.017
508.333
508.588
508.788
508.94
509.053
509.136
509.198
509.24
509.274
509.3
509.324
509.344
509.366
509.385
509.411
509.434
509.45
509.591
509.386
281.731
307.294
296.235
279.491
276.981
281.418
292.385
304.23
314.27
322.521
329.803
336.44
342.71
348.71
354.669
360.584
366.488
372.354
377.908
382.817
386.785
389.78
392.127
393.816
395.169
396.19
396.87
397.894
399.269
401.001
403.466
405.957
407.752
409.188
410.267
410.984
412.06
413.497
415.29
417.806
420.302
422.079
423.484
424.534
425.227
426.267
427.645
429.357
431.042
432.378
434.015
435.632
436.899
437.837
438.454
439.376
440.591
442.085
444.137
446.113
447.503
448.587
449.392
449.92
450.711
451.756
453.04
454.808
456.519
457.73
458.675
459.381
459.844
460.54
461.461
462.598
464.169
466.371
469.393
473.138
477.223
481.32
485.331
489.105
492.372
495.046
497.247
499.091
500.661
502.016
503.195
504.228
505.132
505.92
506.601
507.181
507.669
508.074
508.401
508.662
508.86
509.006
509.111
509.184
509.233
509.267
509.291
509.309
509.326
509.341
509.36
509.378
509.402
509.425
509.441
509.582
509.378
281.741
307.264
296.177
279.375
276.801
281.213
292.137
303.942
313.952
322.19
329.481
336.142
342.462
348.536
354.609
360.68
366.788
372.903
378.726
383.898
388.082
391.241
393.709
395.482
396.901
397.968
398.68
399.748
401.181
402.981
405.533
408.101
409.945
411.415
412.518
413.249
414.346
415.806
417.625
420.168
422.677
424.458
425.861
426.906
427.595
428.627
429.991
431.681
433.339
434.651
436.253
437.832
439.064
439.974
440.572
441.461
442.632
444.069
446.041
447.932
449.256
450.282
451.04
451.537
452.277
453.253
454.451
456.106
457.704
458.83
459.703
460.352
460.775
461.411
462.25
463.289
464.731
466.761
469.563
473.048
476.868
480.748
484.614
488.325
491.594
494.315
496.582
498.505
500.155
501.591
502.855
503.971
504.953
505.809
506.551
507.184
507.713
508.144
508.484
508.746
508.939
509.072
509.159
509.213
509.243
509.26
509.27
509.278
509.288
509.3
509.316
509.333
509.358
509.383
509.402
509.547
509.346
281.755
307.222
296.092
279.207
276.536
280.908
291.763
303.503
313.453
321.65
328.927
335.591
341.946
348.092
354.287
360.551
366.919
373.377
379.589
385.149
389.666
393.077
395.737
397.642
399.162
400.304
401.063
402.203
403.725
405.634
408.321
411.006
412.924
414.447
415.585
416.338
417.465
418.96
420.815
423.392
425.913
427.692
429.088
430.125
430.806
431.826
433.171
434.83
436.445
437.721
439.27
440.789
441.969
442.838
443.408
444.257
445.373
446.736
448.591
450.35
451.576
452.525
453.227
453.687
454.376
455.281
456.387
457.895
459.328
460.337
461.12
461.706
462.09
462.669
463.432
464.373
465.661
467.46
469.919
472.988
476.399
479.937
483.586
487.213
490.494
493.29
495.665
497.707
499.485
501.044
502.418
503.633
504.711
505.658
506.477
507.17
507.741
508.201
508.56
508.826
509.011
509.132
509.201
509.232
509.239
509.237
509.231
509.228
509.23
509.238
509.251
509.269
509.295
509.322
509.345
509.494
509.297
281.774
307.163
295.976
278.971
276.161
280.475
291.224
302.858
312.705
320.813
328.029
334.651
341.003
347.189
353.495
359.964
366.659
373.564
380.335
386.482
391.519
395.336
398.308
400.431
402.119
403.382
404.222
405.478
407.149
409.233
412.139
415.013
417.05
418.657
419.85
420.638
421.811
423.359
425.268
427.897
430.443
432.224
433.612
434.637
435.309
436.31
437.625
439.239
440.802
442.029
443.51
444.957
446.075
446.894
447.428
448.218
449.252
450.51
452.222
453.834
454.945
455.788
456.401
456.798
457.385
458.151
459.082
460.36
461.569
462.405
463.033
463.491
463.786
464.223
464.798
465.511
466.511
467.943
469.936
472.459
475.339
478.528
482.038
485.697
489.089
492.038
494.562
496.728
498.599
500.247
501.727
503.064
504.273
505.349
506.281
507.067
507.709
508.217
508.599
508.868
509.04
509.132
509.165
509.162
509.138
509.109
509.085
509.072
509.069
509.075
509.093
509.115
509.149
509.183
509.216
509.375
509.189
281.801
307.085
295.817
278.658
275.651
279.88
290.481
301.951
311.629
319.579
326.649
333.144
339.411
345.559
351.909
358.556
365.612
373.105
380.632
387.666
393.544
398.005
401.487
403.972
405.94
407.407
408.38
409.832
411.751
414.126
417.392
420.563
422.781
424.508
425.776
426.609
427.842
429.454
431.427
434.104
436.648
438.403
439.752
440.739
441.384
442.34
443.587
445.107
446.561
447.695
449.048
450.355
451.353
452.08
452.552
453.254
454.166
455.271
456.744
458.093
459.02
459.731
460.259
460.605
461.128
461.812
462.639
463.721
464.683
465.344
465.846
466.219
466.463
466.832
467.305
467.86
468.569
469.49
470.673
472.205
474.143
476.632
479.827
483.461
487.034
490.248
493.027
495.388
497.385
499.138
500.769
502.296
503.689
504.921
505.976
506.856
507.565
508.118
508.528
508.803
508.962
509.027
509.027
508.986
508.925
508.871
508.831
508.811
508.81
508.822
508.85
508.884
508.935
508.981
509.028
509.202
509.038
281.833
306.988
295.628
278.264
275.011
279.132
289.525
300.781
310.205
317.897
324.704
330.942
336.962
342.917
349.148
355.837
363.201
371.333
379.849
388.115
395.183
400.755
405.08
408.157
410.59
412.394
413.587
415.359
417.684
420.538
424.405
428.076
430.609
432.548
433.942
434.848
436.175
437.872
439.907
442.55
444.981
446.642
447.915
448.849
449.459
450.366
451.554
453.001
454.383
455.455
456.715
457.92
458.828
459.481
459.9
460.514
461.311
462.271
463.576
464.777
465.586
466.18
466.59
466.846
467.207
467.648
468.143
468.785
469.309
469.6
469.741
469.811
469.839
469.868
469.902
469.95
470.034
470.182
470.248
470.403
471.148
473.235
476.653
480.74
484.84
488.436
491.282
493.61
495.616
497.437
499.225
500.971
502.594
504.033
505.266
506.289
507.113
507.749
508.209
508.502
508.65
508.682
508.644
508.55
508.459
508.385
508.342
508.334
508.352
508.393
508.459
508.522
508.608
508.68
508.759
508.967
508.846
281.869
306.886
295.408
277.834
274.286
278.276
288.429
299.419
308.494
315.865
322.243
328.086
333.613
339.153
344.956
351.371
358.76
367.267
376.7
386.434
395.215
402.138
407.745
411.815
415.065
417.493
419.097
421.492
424.601
428.381
433.287
437.612
440.395
442.393
443.772
444.649
445.889
447.429
449.217
451.476
453.458
454.751
455.708
456.402
456.856
457.53
458.434
459.561
460.634
461.47
462.434
463.317
463.938
464.367
464.639
465.043
465.539
466.098
466.806
467.471
467.992
468.474
468.899
469.196
469.708
470.433
471.41
472.759
473.948
474.754
475.321
475.68
475.913
476.19
476.352
476.331
475.941
474.751
472.827
470.279
468.658
469.27
472.181
476.933
481.796
485.863
488.774
491.065
493.115
495.053
497.023
499.021
500.916
502.593
504.015
505.202
506.173
506.935
507.496
507.859
508.044
508.079
508.022
507.902
507.801
507.736
507.723
507.752
507.831
507.924
508.052
508.16
508.305
508.42
508.547
508.805
508.75
281.907
306.777
295.174
277.396
273.502
277.371
287.238
297.948
306.595
313.578
319.356
324.675
329.442
334.195
339.174
344.722
351.442
359.648
369.599
380.731
391.704
400.92
408.844
414.462
418.937
422.168
424.235
427.204
430.721
434.652
438.478
440.763
441.803
442.288
442.556
442.689
442.903
443.144
443.473
444.146
445.008
445.675
446.211
446.621
446.897
447.284
447.779
448.3
448.69
448.693
448.448
447.833
446.971
446.294
445.799
445.071
444.37
444.034
444.359
445.786
447.487
449.002
450.113
450.854
451.851
453.035
454.36
456.328
458.592
460.275
461.564
462.495
463.063
463.899
465.056
466.467
467.868
468.234
466.937
463.251
460.931
462.095
466.713
473.187
479.026
483.21
485.783
487.51
489.392
491.372
493.457
495.743
498.006
500.052
501.802
503.293
504.546
505.552
506.303
506.807
507.1
507.194
507.169
507.072
506.997
506.981
507.031
507.152
507.33
507.508
507.723
507.906
508.126
508.297
508.497
508.799
508.824
281.941
306.675
294.945
276.973
272.698
276.477
286
296.489
304.625
311.142
316.284
320.846
324.683
328.228
331.859
335.703
340.591
347.115
356.25
368.131
382.037
393.485
403.49
410.911
415.719
418.781
420.592
423.098
425.703
429.242
429.217
427.636
425.042
422.141
419.855
418.267
415.964
412.926
409.872
406.281
404.298
404.208
404.776
405.754
406.8
408.697
411.877
416.34
420.384
423.183
425.374
426.278
426.052
425.611
425.086
424.058
422.65
420.68
418.767
418.865
420.478
424.302
428.425
431.349
436.356
443.862
455.131
469.611
480.176
485.606
488.223
489.356
489.827
489.932
489.415
487.642
485.381
479.956
468.611
454.805
446.756
447.842
455.599
465.887
473.885
478.392
480.24
481.003
482.266
484.458
487.053
489.998
493.152
496.03
498.441
500.438
502.104
503.468
504.527
505.312
505.856
506.134
506.212
506.181
506.16
506.2
506.353
506.576
506.867
507.151
507.467
507.733
508.038
508.269
508.543
508.876
508.992
281.972
306.589
294.763
276.574
271.998
275.664
284.893
295.168
302.776
308.909
313.377
317.109
319.988
322.111
323.876
325.365
327.031
330.014
336.182
348.91
364.035
381.398
399.445
417.492
433.344
448.747
461.429
482.739
515.439
546.627
559.767
556.351
549.082
539.099
531.21
525.823
518.072
507.898
496.577
477.993
462.124
452.522
448.844
449.155
450.024
452.963
459.998
470.588
479.873
485.939
490.066
491.018
490.296
489.122
488.123
486.265
483.642
478.957
474.309
475.314
479.655
485.348
487.004
486.993
484.688
472.586
451.145
442.763
445.309
452.229
460.083
465.011
468.021
471.974
476.245
480.509
482.997
481.531
469.634
447.724
433.035
433.157
442.877
455.702
464.699
469.283
470.457
470.309
470.669
472.611
475.791
479.498
483.677
487.678
491.009
493.789
496.215
498.349
500.204
501.785
503.065
503.935
504.431
504.665
504.845
505.056
505.373
505.746
506.182
506.589
507.018
507.372
507.761
508.047
508.391
508.748
508.944
281.996
306.521
294.663
276.208
271.491
275.005
284.08
294.049
301.386
307.033
311.09
314.051
315.956
317.049
316.689
315.788
313.761
311.382
313.529
324.692
350.407
397.913
482.755
549.693
595.983
626.138
643.524
669.439
690.921
704.408
696.699
676.845
654.855
635.614
621.419
611.992
599.024
582.196
562.259
527.15
491.088
470.73
461.293
461.726
463.434
469.706
485.343
515.119
542.115
559.666
571.619
569.259
562.264
552.611
545.338
532.695
516.015
488.988
430.251
338.333
293.705
291.923
294.699
295.534
289.815
274.756
263.851
264.805
275.087
288.332
299.847
308.894
314.949
324.423
337.448
355.17
378.138
403.462
415.217
410.237
408.612
419.258
437.709
452.257
459.783
461.339
460.016
456.747
454.301
453.997
455.879
459.73
464.224
469.319
474.629
479.827
484.738
489.242
493.267
496.729
499.49
501.387
502.533
503.149
503.553
503.918
504.369
504.862
505.412
505.916
506.427
506.838
507.283
507.6
507.989
508.352
508.593
282.01
306.49
294.597
275.96
271.117
274.543
283.521
293.238
300.432
305.685
309.409
311.931
313.004
313.049
311.695
308.478
303.24
294.924
292.151
306.565
371.499
509.468
601.901
639.197
659.643
672.126
680.982
695.513
696.542
687.922
665.474
639.712
616.821
593.941
575.579
562.253
542.441
515.926
475.353
415.424
360.68
364.671
378.858
397.637
417.904
440.756
489.164
526.65
574.772
598.317
591.529
564.9
525.306
495.483
475.196
440.695
389.315
332.9
289.546
281.448
318.528
352.75
356.582
349.067
341.122
339.191
343.305
350.273
355.227
356.381
355.53
353.479
351.666
348.209
343.196
335.921
327.594
333.661
356.436
375.613
393.926
415.34
434.66
448.368
454.139
453.311
449.999
445.408
441.741
439.533
438.588
438.877
441.17
446.266
453.873
463.406
472.899
481.293
488.368
493.945
497.941
500.443
501.782
502.377
502.711
503.038
503.501
504.039
504.65
505.206
505.763
506.202
506.672
506.996
507.406
507.764
508.029
282.013
306.487
294.536
275.806
270.847
274.229
283.157
292.675
299.77
304.798
308.175
310.514
310.895
310.357
308.13
303.286
295.472
283.115
274.26
302.084
434.775
558.103
611.767
589.106
556.016
560.413
577.659
581.273
573.704
553.534
542.885
520.994
489.097
462.241
441.744
428.214
405.83
357.872
312.061
280.583
284.914
316.68
354.903
378.793
401.23
433.523
475.663
544.053
571.849
568.028
528.248
428.213
343.441
303.269
289.756
293.05
313.234
332.725
364.606
477.808
519.902
526.624
502.94
476.84
437.778
413.094
409.791
415.9
426.223
433.762
439.304
443.216
445.707
448.705
449.93
447.689
435.065
388.477
371.681
374.7
389.357
410.698
426.975
439.115
443.394
442.237
442.171
442.086
440.996
438.852
436.096
433.923
434.18
438.405
447.337
458.865
470.469
480.464
488.558
494.583
498.538
500.692
501.595
501.823
501.944
502.183
502.647
503.226
503.889
504.482
505.069
505.519
506.005
506.33
506.758
507.107
507.394
282.017
306.486
294.486
275.688
270.664
274.015
282.91
292.292
299.275
304.215
307.284
309.499
309.425
308.493
305.585
299.568
289.973
274.444
261.485
311.82
466.347
558.977
534.572
500.053
499.071
518.852
545.741
540.311
517.097
497.513
458.234
383.213
339.113
310
286.721
269.55
253.087
228.069
213.981
284.659
308.873
285.928
333.305
402.875
448.556
464.57
506.13
519.294
496.204
425.337
320.253
267.323
259.357
262.388
271.279
292.604
329.172
385.615
506.807
566.51
563.397
553.303
518.908
489.489
444.155
417.872
416.435
425.925
436.019
444.763
452.66
459.364
464.233
470.837
477.987
488.512
488.166
458.413
399.677
380.859
387.559
403.645
417.844
429.787
434.328
437.218
443.184
447.645
448.945
447.602
444.036
440.531
439.967
443.877
453.042
464.673
475.713
484.646
491.634
496.634
499.635
500.955
501.237
501.127
501.079
501.268
501.788
502.43
503.144
503.77
504.379
504.84
505.338
505.665
506.113
506.453
506.767
282.025
306.482
294.441
275.581
270.526
273.851
282.712
292
298.869
303.753
306.601
308.621
308.352
307.017
303.538
296.622
285.641
267.497
252.031
320.428
474.17
535.49
501.445
464.712
447.565
501.627
518.793
465.266
406.19
328.54
238.539
207.287
213.564
202.284
198.286
202.774
213.594
192.306
243.156
297.533
285.36
415.076
475.088
527.336
522.401
480.563
459.082
366.25
284.848
287.816
271.018
261.323
258.248
258.833
265.894
306.66
377.753
500.275
577.652
579.797
557.109
544.687
491.488
459.665
391.974
363.85
347.692
347.291
358.182
373.885
392.442
408.367
425.905
447.981
467.712
490.285
510.051
495.872
433.3
391.154
385.685
395.691
410.31
423.914
431.078
439.129
449.147
455.658
458.335
457.664
454.685
451.574
451.12
455.028
463.526
473.935
483.305
490.128
495.158
498.536
500.296
500.745
500.567
500.191
500.093
500.318
500.924
501.64
502.407
503.062
503.69
504.161
504.673
505.006
505.475
505.808
506.152
282.036
306.453
294.385
275.495
270.42
273.721
282.548
291.782
298.562
303.401
306.108
307.95
307.553
305.937
302.008
294.469
282.484
262.383
245.815
326.805
475.284
519.541
457.387
422.612
412.215
488.346
491.781
375.705
281.536
183.908
146.088
152.382
141.737
132.124
149.336
190.279
207.67
197.513
277.188
320.686
375.184
503.9
497.71
531.314
495.091
315.802
232.142
266.48
268.263
262.299
245.755
233.332
229.365
234.072
229.822
311.887
435.143
558.426
612.011
559.961
535.957
521.966
439.083
418.676
294.65
244.787
230.182
227.523
236.093
251.01
276.946
301.362
337.477
404.214
443.988
484.487
518.565
513.263
455.655
399.185
383.317
389.972
405.749
421.168
430.881
441.835
452.88
460.383
463.936
464.074
462.092
459.844
459.733
463.591
471.367
480.711
488.828
494.178
497.611
499.503
500.174
500.04
499.51
499.091
499.057
499.403
500.125
500.914
501.729
502.408
503.053
503.533
504.06
504.4
504.892
505.219
505.594
282.038
306.447
294.373
275.462
270.353
273.634
282.433
291.64
298.364
303.167
305.786
307.505
307.021
305.226
301.003
293.074
280.438
259.098
242.249
330.046
471.127
507.432
442.227
407.694
392.907
438.801
199.375
207.429
217.686
310.577
345.411
453.257
517.098
493.537
516.904
217.482
292.265
457.792
578.31
619.197
549.94
523.026
503.512
379.841
291.699
338.669
414.245
473.771
524.457
523.627
467.604
404.235
381.352
386.126
403.135
419.387
430.507
442.45
453.95
462.218
466.799
467.881
466.677
464.824
464.764
468.32
475.457
484.162
491.75
496.309
498.73
499.73
499.783
499.267
498.589
498.206
498.251
498.725
499.534
500.38
501.229
501.925
502.581
503.07
503.609
503.956
504.463
504.791
505.182
282.035
306.451
294.38
275.433
270.251
273.501
282.258
291.431
298.074
302.817
305.312
306.846
306.233
304.174
299.521
291.023
277.436
254.298
237.192
332.327
464.958
489.343
406.038
374.546
364.514
393.075
196.115
206.781
241.633
324.31
344.957
488.271
522.392
490.938
493.962
234.316
301.659
494.476
597.734
620.643
534.1
503.645
477.973
332.117
193.709
224.124
300.346
431.111
517.436
535.354
482.007
407.685
376.937
380.654
399.66
415.519
428.394
441.963
454.447
464.1
470.28
473.052
473.131
471.843
471.509
474.167
480.19
487.557
494.167
497.978
499.396
499.387
498.678
497.638
496.901
496.653
496.885
497.603
498.561
499.501
500.403
501.127
501.804
502.307
502.866
503.228
503.758
504.098
504.504
282.038
306.426
294.349
275.376
270.107
273.319
282.022
291.151
297.697
302.348
304.695
305.986
305.2
302.804
297.594
288.39
273.625
248.392
230.774
333.096
455.022
471.091
381.368
347.065
333.75
335.19
206.764
217.713
222.881
303.838
353.674
497.707
515.805
478.29
480.616
285.815
362.199
547.152
617.846
613.097
511.38
477.89
436.708
301.821
188.807
195.676
219.726
291.514
466.474
524.951
480.492
403.726
368.213
375.281
393.756
407.284
422.356
439.114
454.359
465.613
473.585
478.632
480.548
480.151
479.236
480.161
483.663
489.548
494.848
497.327
497.588
496.758
495.363
494.271
493.823
493.953
494.709
495.822
497.022
498.102
499.082
499.846
500.558
501.09
501.687
502.077
502.648
503.007
503.448
282.045
306.397
294.304
275.3
269.937
273.109
281.744
290.81
297.247
301.767
303.956
304.947
303.949
301.156
295.297
285.313
269.303
242.022
222.489
326.782
440.022
450.388
353.552
315.464
295.409
290.57
208.196
229.127
227.373
218.667
372.949
477.378
490.328
461.534
476.349
298.415
413.619
589.358
639.193
579.875
479.072
444.547
413.078
312.936
210.774
222.484
225.343
236.346
291.376
440.323
445.64
370.654
351.59
364.363
376.43
390.667
412.153
437.409
455.632
468.714
477.962
484.475
487.584
487.311
485.251
484.227
485.218
488.732
491.401
492.192
491.753
490.444
489.289
488.819
489.042
490.034
491.6
493.216
494.749
496.019
497.106
497.936
498.71
499.298
499.96
500.4
501.036
501.421
501.923
282.054
306.362
294.241
275.184
269.719
272.843
281.391
290.351
296.662
300.978
302.982
303.565
302.285
298.973
292.309
281.379
264.073
234.739
211.027
311.675
425.46
436.84
338.4
299.248
273.312
259.338
173.869
211.51
212.195
288.242
439.35
425.533
444.404
423.031
451.723
293.756
417.434
591.295
634.198
546.024
455.012
424.766
416.352
350.016
204.905
213.984
195.889
293.903
325.052
329.142
341.671
319.735
307.443
317.113
328.97
357.523
400.79
438.022
462.899
476.74
485.435
490.651
492.11
491.236
488.126
485.258
484.122
483.02
481.372
479.774
478.704
478.343
478.695
479.922
481.836
484.137
486.553
488.771
490.731
492.288
493.587
494.579
495.502
496.217
497.008
497.545
498.306
498.731
499.366
282.065
306.338
294.191
275.05
269.522
272.604
281.081
289.92
296.127
300.231
302.078
302.274
300.738
296.937
289.62
277.905
259.869
230.012
199.771
283.387
412.966
435.635
347.103
305.425
280.694
268.974
149.065
173
265.517
462.911
507.981
375.096
382.496
381.65
412.483
271.571
375.78
573.611
623.243
546.885
464.522
440.253
438.523
395.64
210.219
209.995
207.934
318.625
380.865
398.822
348.669
311.905
287.993
266.412
285.262
338.311
401.206
449.581
477.799
490.441
493.881
493.67
491.537
486.454
481.13
477.093
473.996
469.735
465.756
463.745
463.74
465.469
468.348
471.549
474.75
477.808
480.756
483.376
485.678
487.538
489.122
490.361
491.506
492.404
493.366
494.029
494.956
495.425
496.25
282.075
306.325
294.159
274.943
269.397
272.453
280.883
289.632
295.761
299.735
301.465
301.418
299.703
295.574
287.842
275.704
257.347
228.162
194.15
252.047
400.047
437.938
366.313
321.915
302.606
298.549
155.913
241.968
401.519
520.53
523.57
359.293
313.409
346.044
374.335
284.633
363.45
561.084
616.028
551.152
482.459
469.994
469.142
434.14
222.814
220.434
187.576
273.787
336.283
369.761
367.772
302.276
267.854
238.048
270.294
337.295
406.066
458.875
489.23
498.679
497.236
488.58
477.616
468.165
461.762
458.621
456.746
454.254
452.458
452.563
454.565
458.045
462.048
465.95
469.583
472.918
476.09
478.936
481.488
483.597
485.424
486.874
488.206
489.254
490.358
491.126
492.194
492.695
493.696
282.085
306.316
294.123
274.856
269.3
272.344
280.731
289.422
295.471
299.367
300.964
300.811
298.905
294.539
286.454
274.131
255.492
227.298
192.481
221.894
380.441
440.538
394.716
353.348
340.76
339.157
264.067
376.909
455.584
531.941
504.484
359.231
261.859
327.776
355.522
306.746
365.032
549.572
609.44
560.455
500.446
490.24
505.472
477.912
234.414
236.193
200.849
287.524
326.061
353.241
358.73
294.929
254.084
227.148
267.637
336.658
406.74
460.781
492.101
500.189
493.833
476.031
458.888
446.486
440.437
439.183
439.868
441.062
442.672
445.351
449.025
453.216
457.467
461.455
465.21
468.673
472
475.037
477.811
480.139
482.175
483.804
485.299
486.48
487.71
488.572
489.767
490.305
491.455
282.094
306.291
294.071
274.791
269.219
272.259
280.609
289.272
295.255
299.106
300.595
300.375
298.334
293.789
285.462
273.008
254.221
226.862
192.441
201.48
358.716
440.378
425.727
377.92
362.821
404.62
427.074
447.95
469.007
521.492
476.391
354.279
226.341
320.797
357.519
335.292
368.098
540.619
604.382
570.9
515.792
507.32
526.269
500.698
244.715
241.193
225.202
297.675
328.997
349.071
352.407
294.023
252.113
226.461
267.939
335.173
404.057
457.676
487.944
493.37
483.693
462.02
442.565
429.736
424.954
425.454
428.976
433.288
437.376
441.533
445.804
450.034
454.112
457.969
461.708
465.256
468.713
471.907
474.857
477.353
479.547
481.312
482.931
484.216
485.548
486.488
487.787
488.358
489.636
282.094
306.286
294.059
274.772
269.169
272.2
280.523
289.174
295.117
298.938
300.355
300.09
297.966
293.3
284.843
272.276
253.449
226.552
193.415
187.528
341.35
438.764
441.135
403.684
389.188
428.064
469.416
348.778
310.726
303.128
299.928
305.243
326.14
375.227
412.524
462.823
455.409
467.872
506.129
461.936
354.156
216.749
286.681
337.968
315.714
307.438
314.291
296.38
211.081
109.629
91.7444
99.0288
126.429
224.984
340.845
369.355
533.816
598.556
578.599
525.183
516.873
549.156
532.073
417.573
218.356
209.065
244.883
257.116
207.632
187.012
178.568
190.386
250.978
239.712
239.255
300.741
332.742
350.779
349.806
295.043
253.714
228.581
267.539
331.416
397.765
449.421
477.93
482.246
471.683
450.002
431.387
420.107
416.722
418.369
423.568
429.396
434.665
439.453
443.88
447.979
451.859
455.569
459.261
462.859
466.425
469.737
472.809
475.42
477.721
479.579
481.283
482.64
484.043
485.039
486.41
487.01
488.372
282.09
306.296
294.067
274.767
269.095
272.11
280.395
289.032
294.918
298.696
300.005
299.676
297.434
292.589
283.96
271.205
252.336
226.074
195.563
174.974
289.108
431.364
473.01
439.435
425.882
449.272
482.986
460.865
461.155
462.729
473.549
483.108
499.611
499.451
493.684
481.353
425.579
462.973
491.671
441.7
355.477
264.638
225.907
264.614
290.923
305.222
321.381
317.99
272.562
159.581
114.975
127.72
133.544
236.551
335.09
357.657
515.332
589.245
593.403
542.739
536.372
565.796
559.187
468.412
253.632
265.155
293.668
285.159
240.009
222.084
193.757
229.608
246.866
218.604
255.371
302.317
337.065
357.257
350.166
300.321
261.393
234.275
264.057
320.512
380.938
428.382
453.615
457.034
447.039
428.846
414.597
407.805
408.005
412.255
418.998
425.74
431.749
436.865
441.184
444.935
448.435
451.857
455.433
459.082
462.823
466.346
469.62
472.409
474.875
476.875
478.711
480.181
481.696
482.783
484.262
484.92
486.405
282.091
306.277
294.044
274.741
268.995
271.985
280.23
288.843
294.667
298.388
299.563
299.155
296.764
291.685
282.85
269.83
250.911
225.358
198.227
175.403
211.842
387.933
471.367
500.811
519.583
533.288
548.649
569.703
575.752
584.579
601.535
599.409
579.625
528.163
457.366
382.415
391.136
461.657
461.45
428.1
390.871
380.282
355.148
326.547
317.135
305.035
308.4
296.626
222.225
148.481
135.987
146.33
146.341
195.048
291.052
308.97
461.964
573.245
609.721
567.276
559.461
608.317
593.614
518.062
298.128
276.883
307.914
304.673
271.796
250.342
220.735
212.375
210.764
205.127
273.142
307.699
349.305
372.886
357.308
306.884
264.348
232.244
245.452
286.4
334.626
374.251
397.917
404.906
403.002
398.293
396.625
398.037
402.772
409.915
417.467
424.319
429.959
434.412
437.93
440.905
443.75
446.718
450.084
453.743
457.667
461.458
465.036
468.102
470.817
473.025
475.054
476.687
478.368
479.588
481.231
481.97
483.64
282.095
306.255
294.014
274.699
268.889
271.846
280.051
288.615
294.381
298.025
299.052
298.552
295.982
290.652
281.545
268.242
249.146
224.095
199.396
185.47
174.957
249.52
387.278
459.96
503.881
532.133
557.138
592.575
630.54
641.573
613.365
526.747
416.272
331.07
312.922
329.553
406.441
454.172
436.289
426.367
510.432
548.957
539.895
513.137
475.44
372.433
250.414
190.436
164.033
149.262
143.537
176.683
188.118
191.237
205.121
217.135
325.832
514.953
592.746
585.38
588.083
608.688
582.884
501.161
282.429
298.446
331.201
333.916
293.434
264.307
227.5
213.584
216.791
254.72
302.831
335.191
374.833
396.002
376.386
316.252
263.288
208.748
182.261
214.588
266.9
308.257
337.403
357.546
371.199
380.807
388.664
396.094
403.614
411.313
418.639
424.734
429.147
432.086
434.133
435.872
437.808
440.209
443.313
446.94
451.017
455.068
458.965
462.341
465.366
467.85
470.157
472.027
473.965
475.372
477.269
478.117
480.043
282.102
306.229
293.976
274.629
268.769
271.682
279.849
288.327
294.036
297.57
298.429
297.804
295.014
289.36
279.938
266.156
246.653
221.173
198.857
191.243
187.103
224.317
322.926
385.163
424.274
462.662
486.945
522.72
559.512
581.988
570.694
526.219
463.33
400.812
358.87
366.558
410.802
409.792
417.549
538.091
650.118
641.1
638.305
626.039
593.546
451.148
286.122
275.235
260.304
257.995
265.046
274.389
274.263
272.719
270.341
262.662
253.849
305.006
493.307
547.671
557.617
556.511
515.362
432.035
265.994
289.755
319.985
319.62
275.344
257.59
252.583
263.747
287.779
323.174
362.798
383.049
392.638
390.157
367.75
298.087
248.323
227.929
242.578
283.392