/*--------------------------------*- C++ -*----------------------------------*\
| =========                 |                                                 |
| \\      /  F ield         | OpenFOAM: The Open Source CFD Toolbox           |
|  \\    /   O peration     | Version:  v2006                                 |
|   \\  /    A nd           | Website:  www.openfoam.com                      |
|    \\/     M anipulation  |                                                 |
\*---------------------------------------------------------------------------*/
FoamFile
{
    version     2.0;
    format      ascii;
    class       volScalarField;
    location    "0.55";
    object      omega;
}
// * * * * * * * * * * * * * * * * * * * * * * * * * * * * * * * * * * * * * //

dimensions      [0 0 -1 0 0 0 0];


internalField   nonuniform List<scalar> 
374400
(
281.616
307.066
295.918
279.341
277.139
281.694
292.785
304.546
314.467
322.602
329.791
336.34
342.51
348.399
354.21
359.904
365.527
371.07
376.29
380.902
384.645
387.49
389.735
391.358
392.662
393.651
394.313
395.308
396.651
398.35
400.777
403.242
405.026
406.456
407.535
408.253
409.332
410.777
412.586
415.138
417.683
419.506
420.95
422.032
422.749
423.824
425.251
427.031
428.79
430.188
431.908
433.615
434.954
435.949
436.606
437.586
438.882
440.48
442.686
444.827
446.34
447.523
448.403
448.983
449.849
450.996
452.408
454.363
456.264
457.614
458.668
459.455
459.973
460.749
461.773
463.041
464.792
467.247
470.603
474.718
479.13
483.451
487.543
491.251
494.346
496.794
498.755
500.359
501.695
502.822
503.786
504.621
505.347
505.977
506.522
506.986
507.382
507.717
507.997
508.231
508.42
508.57
508.688
508.779
508.85
508.904
508.948
508.983
509.012
509.037
509.064
509.085
509.11
509.133
509.15
509.289
509.08
281.617
307.064
295.913
279.331
277.123
281.674
292.76
304.519
314.441
322.579
329.775
336.333
342.517
348.422
354.253
359.973
365.625
371.201
376.454
381.095
384.862
387.725
389.981
391.613
392.925
393.918
394.582
395.582
396.931
398.636
401.072
403.545
405.333
406.766
407.847
408.567
409.648
411.095
412.906
415.46
418.006
419.829
421.272
422.354
423.069
424.144
425.569
427.346
429.101
430.496
432.211
433.913
435.248
436.24
436.895
437.871
439.161
440.752
442.948
445.078
446.583
447.759
448.633
449.21
450.071
451.209
452.612
454.553
456.442
457.782
458.828
459.609
460.122
460.891
461.907
463.165
464.902
467.337
470.67
474.755
479.138
483.433
487.506
491.203
494.296
496.748
498.714
500.329
501.676
502.816
503.793
504.642
505.382
506.023
506.576
507.049
507.452
507.791
508.077
508.311
508.501
508.65
508.766
508.856
508.926
508.979
509.022
509.055
509.086
509.111
509.136
509.158
509.183
509.207
509.223
509.364
509.155
281.62
307.055
295.898
279.303
277.082
281.629
292.708
304.461
314.383
322.53
329.74
336.319
342.53
348.47
354.348
360.124
365.841
371.489
376.815
381.524
385.344
388.245
390.529
392.18
393.505
394.509
395.18
396.19
397.551
399.271
401.725
404.214
406.013
407.453
408.539
409.262
410.347
411.799
413.614
416.172
418.719
420.54
421.981
423.061
423.775
424.847
426.268
428.038
429.785
431.174
432.878
434.567
435.892
436.876
437.525
438.493
439.771
441.346
443.517
445.621
447.107
448.267
449.129
449.697
450.545
451.667
453.049
454.958
456.814
458.129
459.157
459.923
460.427
461.183
462.181
463.416
465.121
467.51
470.778
474.785
479.086
483.31
487.327
490.988
494.065
496.518
498.5
500.133
501.507
502.677
503.684
504.563
505.329
505.993
506.568
507.058
507.473
507.823
508.114
508.352
508.542
508.689
508.802
508.887
508.953
509.002
509.041
509.071
509.098
509.122
509.147
509.167
509.193
509.216
509.233
509.373
509.164
281.623
307.043
295.874
279.256
277.011
281.549
292.613
304.356
314.275
322.429
329.659
336.265
342.516
348.508
354.456
360.32
366.141
371.906
377.353
382.173
386.082
389.048
391.381
393.064
394.415
395.437
396.12
397.147
398.53
400.277
402.764
405.282
407.1
408.553
409.647
410.375
411.467
412.926
414.751
417.317
419.868
421.688
423.128
424.204
424.916
425.983
427.397
429.156
430.889
432.265
433.952
435.622
436.93
437.9
438.539
439.492
440.749
442.298
444.431
446.493
447.946
449.078
449.919
450.472
451.298
452.389
453.732
455.588
457.391
458.668
459.663
460.405
460.892
461.622
462.585
463.777
465.424
467.737
470.903
474.789
478.966
483.079
487.013
490.626
493.685
496.148
498.156
499.831
501.248
502.463
503.518
504.441
505.249
505.952
506.556
507.073
507.51
507.874
508.172
508.411
508.597
508.738
508.841
508.918
508.974
509.013
509.045
509.07
509.093
509.113
509.135
509.154
509.18
509.204
509.221
509.364
509.156
281.63
307.023
295.836
279.18
276.895
281.419
292.457
304.177
314.084
322.24
329.489
336.124
342.424
348.483
354.523
360.51
366.48
372.419
378.051
383.043
387.093
390.16
392.57
394.306
395.697
396.748
397.45
398.506
399.924
401.713
404.254
406.816
408.662
410.136
411.244
411.981
413.085
414.559
416.399
418.978
421.533
423.352
424.787
425.859
426.568
427.629
429.034
430.779
432.493
433.851
435.511
437.152
438.435
439.385
440.011
440.944
442.173
443.684
445.758
447.753
449.157
450.249
451.06
451.594
452.392
453.444
454.737
456.516
458.236
459.453
460.402
461.109
461.575
462.272
463.193
464.331
465.901
468.1
471.107
474.802
478.783
482.729
486.54
490.081
493.121
495.603
497.653
499.383
500.866
502.152
503.276
504.263
505.129
505.883
506.533
507.085
507.549
507.932
508.24
508.483
508.666
508.8
508.896
508.962
509.006
509.036
509.06
509.076
509.093
509.108
509.128
509.146
509.171
509.194
509.211
509.355
509.149
281.639
306.994
295.778
279.065
276.717
281.217
292.21
303.891
313.768
321.914
329.172
335.83
342.178
348.313
354.467
360.609
366.784
372.971
378.872
384.125
388.391
391.621
394.151
395.971
397.427
398.525
399.258
400.357
401.833
403.69
406.316
408.955
410.849
412.357
413.488
414.239
415.363
416.86
418.725
421.331
423.898
425.72
427.153
428.221
428.925
429.978
431.369
433.091
434.778
436.111
437.736
439.338
440.586
441.508
442.114
443.015
444.199
445.654
447.647
449.556
450.892
451.926
452.69
453.191
453.937
454.919
456.127
457.792
459.397
460.528
461.404
462.053
462.48
463.116
463.957
464.998
466.439
468.468
471.257
474.695
478.418
482.154
485.825
489.306
492.349
494.878
496.995
498.803
500.367
501.736
502.946
504.017
504.96
505.782
506.492
507.095
507.597
508.003
508.322
508.564
508.74
508.86
508.937
508.985
509.01
509.025
509.034
509.042
509.053
509.066
509.083
509.1
509.127
509.153
509.173
509.319
509.116
281.654
306.952
295.695
278.897
276.455
280.915
291.839
303.454
313.272
321.379
328.623
335.284
341.668
347.873
354.151
360.487
366.922
373.452
379.74
385.381
389.979
393.46
396.181
398.132
399.689
400.86
401.64
402.811
404.376
406.34
409.101
411.857
413.824
415.383
416.549
417.321
418.476
420.007
421.907
424.546
427.126
428.947
430.372
431.43
432.127
433.168
434.538
436.228
437.873
439.169
440.742
442.285
443.481
444.363
444.942
445.802
446.931
448.311
450.187
451.963
453.201
454.157
454.863
455.328
456.022
456.932
458.045
459.558
460.996
462.008
462.792
463.378
463.763
464.342
465.104
466.043
467.327
469.122
471.568
474.595
477.919
481.325
484.79
488.195
491.254
493.861
496.088
498.017
499.709
501.201
502.522
503.693
504.732
505.643
506.428
507.088
507.629
508.062
508.396
508.641
508.808
508.914
508.972
508.996
509
508.997
508.991
508.99
508.993
509.002
509.017
509.036
509.064
509.092
509.115
509.267
509.067
281.673
306.894
295.579
278.662
276.084
280.486
291.303
302.812
312.529
320.549
327.734
334.351
340.732
346.977
353.366
359.91
366.673
373.648
380.496
386.724
391.841
395.727
398.757
400.925
402.65
403.943
404.803
406.09
407.803
409.94
412.919
415.862
417.948
419.591
420.811
421.617
422.818
424.4
426.354
429.045
431.648
433.47
434.887
435.932
436.62
437.641
438.98
440.626
442.218
443.467
444.974
446.447
447.583
448.414
448.958
449.76
450.808
452.083
453.816
455.442
456.561
457.409
458.023
458.423
459.011
459.777
460.708
461.986
463.19
464.023
464.647
465.102
465.396
465.831
466.403
467.115
468.113
469.543
471.528
474.023
476.843
479.927
483.265
486.699
489.862
492.616
494.987
497.038
498.824
500.412
501.845
503.144
504.316
505.354
506.249
506.998
507.605
508.08
508.433
508.677
508.828
508.902
508.924
508.916
508.89
508.861
508.841
508.83
508.83
508.838
508.859
508.883
508.918
508.953
508.987
509.149
508.96
281.699
306.815
295.421
278.349
275.579
279.897
290.564
301.908
311.458
319.323
326.363
332.855
339.151
345.357
351.79
358.516
365.641
373.203
380.807
387.924
393.879
398.408
401.949
404.478
406.483
407.979
408.973
410.456
412.416
414.843
418.179
421.417
423.681
425.443
426.737
427.589
428.849
430.496
432.514
435.251
437.849
439.64
441.016
442.023
442.683
443.659
444.932
446.484
447.971
449.13
450.513
451.848
452.868
453.61
454.094
454.811
455.741
456.869
458.368
459.736
460.674
461.391
461.922
462.271
462.797
463.48
464.304
465.371
466.313
466.956
467.441
467.801
468.037
468.393
468.847
469.382
470.066
470.964
472.13
473.654
475.567
477.988
481.04
484.466
487.82
490.843
493.466
495.71
497.62
499.318
500.912
502.404
503.758
504.947
505.959
506.797
507.467
507.985
508.361
508.606
508.741
508.786
508.775
508.726
508.668
508.617
508.582
508.568
508.57
508.586
508.618
508.653
508.706
508.753
508.801
508.978
508.811
281.731
306.72
295.233
277.955
274.945
279.155
289.613
300.743
310.039
317.649
324.43
330.666
336.715
342.728
349.042
355.814
363.25
371.452
380.054
388.412
395.573
401.218
405.605
408.73
411.201
413.036
414.251
416.053
418.42
421.326
425.262
428.99
431.563
433.531
434.949
435.871
437.221
438.944
441.008
443.688
446.159
447.85
449.145
450.096
450.719
451.646
452.86
454.343
455.765
456.868
458.172
459.426
460.374
461.057
461.498
462.143
462.978
463.983
465.338
466.567
467.385
467.975
468.374
468.622
468.964
469.372
469.823
470.394
470.842
471.077
471.179
471.226
471.242
471.253
471.261
471.281
471.337
471.445
471.498
471.701
472.555
474.69
477.962
481.808
485.652
489.016
491.684
493.897
495.835
497.618
499.385
501.106
502.693
504.087
505.272
506.249
507.029
507.623
508.043
508.299
508.415
508.427
508.373
508.277
508.19
508.124
508.092
508.091
508.117
508.162
508.232
508.296
508.384
508.456
508.537
508.747
508.624
281.767
306.617
295.014
277.525
274.225
278.306
288.524
299.383
308.335
315.626
321.979
327.824
333.383
338.984
344.86
351.371
358.84
367.421
376.951
386.793
395.665
402.665
408.336
412.454
415.743
418.201
419.826
422.25
425.398
429.225
434.196
438.588
441.419
443.453
444.852
445.744
447.006
448.573
450.391
452.684
454.684
455.989
456.953
457.655
458.116
458.801
459.725
460.882
461.989
462.855
463.861
464.793
465.457
465.921
466.22
466.661
467.211
467.849
468.679
469.465
470.073
470.62
471.088
471.417
471.968
472.737
473.752
475.07
476.145
476.821
477.25
477.5
477.652
477.782
477.794
477.61
476.948
475.634
473.672
471.227
469.86
470.594
473.522
478.051
482.644
486.444
489.139
491.324
493.328
495.246
497.213
499.199
501.058
502.682
504.05
505.187
506.112
506.828
507.343
507.661
507.805
507.814
507.737
507.618
507.527
507.476
507.476
507.517
507.607
507.704
507.834
507.943
508.089
508.205
508.333
508.592
508.535
281.805
306.508
294.782
277.087
273.447
277.409
287.338
297.917
306.443
313.346
319.103
324.431
329.224
334.044
339.099
344.75
351.554
359.839
369.886
381.126
392.185
401.459
409.443
415.103
419.617
422.883
424.976
427.988
431.564
435.571
439.537
441.974
443.126
443.699
444.028
444.199
444.469
444.758
445.152
445.853
446.611
447.122
447.526
447.833
448.036
448.312
448.682
449.099
449.414
449.412
449.174
448.586
447.849
447.304
446.905
446.382
446.005
445.988
446.874
448.972
450.834
452.432
453.554
454.277
455.196
456.292
457.532
459.369
461.541
463.153
464.382
465.26
465.792
466.57
467.607
468.77
469.705
469.672
467.937
464.319
462.407
463.768
468.333
474.41
479.85
483.695
486.022
487.652
489.546
491.55
493.665
495.968
498.206
500.199
501.888
503.325
504.528
505.481
506.175
506.625
506.867
506.923
506.879
506.781
506.723
506.724
506.798
506.934
507.121
507.303
507.519
507.702
507.923
508.093
508.292
508.597
508.617
281.839
306.405
294.557
276.66
272.651
276.522
286.103
296.466
304.474
310.92
316.04
320.619
324.477
328.095
331.811
335.751
340.72
347.32
356.542
368.483
382.425
393.89
403.969
411.454
416.35
419.5
421.368
423.978
426.669
430.301
430.468
428.961
426.483
423.675
421.425
419.867
417.568
414.505
411.329
407.417
405.2
404.803
405.274
406.123
407.07
408.813
411.819
415.97
419.711
422.29
424.361
425.376
425.327
425.096
424.741
424.088
423.28
422.159
421.532
422.786
426.089
431.003
435.583
438.846
444.382
452.512
463.997
477.487
486.339
490.241
491.659
492.044
492.056
491.484
489.9
487.773
484.959
478.704
467.452
454.663
448.121
449.85
457.843
467.482
474.792
478.769
480.289
480.979
482.387
484.715
487.399
490.415
493.556
496.337
498.642
500.553
502.155
503.458
504.457
505.182
505.661
505.88
505.922
505.886
505.883
505.952
506.136
506.376
506.677
506.964
507.28
507.544
507.847
508.076
508.349
508.682
508.792
281.87
306.319
294.375
276.26
271.957
275.714
285.003
295.148
302.627
308.702
313.133
316.899
319.796
321.98
323.854
325.424
327.163
330.188
336.398
349.082
364.19
381.725
400.137
418.403
434.38
450.022
462.764
484.217
516.747
547.743
560.831
557.444
550.292
540.524
532.726
527.434
519.677
509.455
497.69
477.535
460.114
449.37
445.629
445.957
446.88
450.06
457.577
469.048
479.383
486.322
491.568
493.592
493.33
492.803
492.045
490.556
488.318
484.241
481.338
483.052
488.171
491.244
491.271
490.396
484.214
466.194
448.223
444.52
448.844
457.304
463.972
468.143
470.672
473.978
477.576
481.129
482.571
480.265
467.3
446.642
433.758
435.106
445.281
457.284
465.568
469.576
470.356
470.141
470.708
473.008
476.351
480.189
484.396
488.236
491.397
494.069
496.433
498.52
500.321
501.831
503.013
503.775
504.194
504.4
504.591
504.831
505.178
505.57
506.015
506.422
506.847
507.196
507.581
507.864
508.204
508.561
508.749
281.893
306.253
294.274
275.897
271.454
275.057
284.198
294.029
301.238
306.833
310.856
313.834
315.793
316.935
316.645
315.858
313.881
311.538
313.614
324.629
350.717
398.946
484.285
551.13
597.133
627.212
644.387
670.199
692.353
706.229
698.564
678.628
656.68
637.797
624.016
614.964
602.625
586.605
567.512
531.677
493.85
472.221
461.823
462.15
463.746
469.779
485.417
514.713
540.077
556.506
568.597
567.055
561.854
554.195
547.472
536.562
521.508
492.578
430.324
338.643
298.482
295.19
295.402
293.677
283.493
268.846
261.411
264.839
277.921
291.906
303.979
313.373
319.575
329.289
342.695
360.594
383.082
407.121
417.528
412.687
412.322
422.979
440.118
453.356
459.974
461.045
459.456
456.086
453.953
454.053
456.486
460.56
465.201
470.356
475.633
480.768
485.603
490.007
493.896
497.178
499.711
501.39
502.381
502.922
503.319
503.71
504.192
504.706
505.263
505.764
506.267
506.672
507.11
507.422
507.806
508.168
508.401
281.906
306.223
294.206
275.65
271.083
274.599
283.641
293.223
300.286
305.483
309.193
311.706
312.843
312.964
311.645
308.555
303.332
295.046
292.072
306.801
372.775
510.866
602.472
640.049
660.05
672.373
680.989
695.267
697.31
689.409
667.551
640.283
616.096
592.943
575.483
562.804
545.037
520.609
480.46
419.835
362.452
365.998
379.961
399.509
420.015
443.964
494.149
531.176
581.859
600.828
591.249
559.67
519.166
489.13
466.65
429.844
381.055
328.345
286.484
289.444
330.435
357.745
358.168
351.707
347.015
346.55
349.313
353.217
354.716
354.084
352.03
349.552
347.761
344.65
340.964
336.044
332.711
344.184
367.737
384.572
400.096
419.077
436.045
448.56
453.635
452.693
449.3
444.449
440.605
438.4
437.716
438.495
441.604
447.353
455.552
465.363
474.721
482.863
489.588
494.754
498.334
500.491
501.607
502.108
502.447
502.818
503.326
503.893
504.512
505.063
505.611
506.039
506.501
506.819
507.223
507.581
507.837
281.909
306.219
294.146
275.497
270.812
274.288
283.276
292.661
299.631
304.588
307.971
310.296
310.735
310.26
308.097
303.365
295.551
283.181
274.112
302.559
436.175
558.657
611.905
588.918
554.666
559.142
576.381
580.046
572.03
552.94
541.991
517.746
485.103
459.939
440.371
427.418
404.749
355.929
312.846
283.565
285.832
317.757
360.769
384.688
408.523
440.331
484.874
554.745
576.388
569.271
520.092
408.508
326.844
291.485
281.768
290.499
311.336
332.525
378.308
490.612
525.683
529.73
502.539
474.862
436.377
414.692
412.9
418.455
426.785
432.553
436.803
439.894
442.029
444.408
444.597
441.567
427.227
389.615
380.437
382.389
394.794
412.89
426.594
438.148
442.246
441.803
441.923
441.456
439.542
436.798
433.866
432.189
433.279
438.834
448.754
460.895
472.452
482.182
489.851
495.373
498.835
500.607
501.297
501.473
501.641
501.953
502.479
503.091
503.761
504.346
504.92
505.359
505.835
506.154
506.577
506.925
507.203
281.914
306.217
294.096
275.38
270.63
274.076
283.031
292.275
299.145
304
307.081
309.297
309.254
308.397
305.56
299.65
290.045
274.464
261.314
312.786
467.208
559.331
534.3
499.117
497.915
517.43
544.398
539.101
516.228
496.724
455.125
379.874
335.576
303.838
279.14
263.082
251.156
230.041
214.223
287.47
317.437
289.494
328.577
392.004
440.799
460.425
508.186
523.606
496.425
417.045
310.6
265.313
257.722
262.005
271.533
292.75
332.006
398.251
520.368
573.421
567.78
557.828
523.101
492.157
445.76
420.6
420.751
428.148
436.386
443.546
450.318
456.434
461.02
467.32
474.831
484.323
482.077
451.289
402.07
385.912
391.117
403.797
415.814
427.861
433.074
437.368
443.72
447.318
447.453
444.794
440.679
437.635
438.128
443.637
453.962
466.229
477.192
485.921
492.583
497.142
499.695
500.684
500.822
500.719
500.746
501.046
501.639
502.31
503.026
503.64
504.233
504.681
505.169
505.49
505.934
506.272
506.577
281.922
306.212
294.051
275.275
270.492
273.914
282.834
291.981
298.743
303.539
306.395
308.432
308.177
306.917
303.52
296.701
285.71
267.486
251.894
321.446
474.797
535.471
501.033
463.435
446.661
499.904
517.538
464.538
405.71
325.714
235.868
206.549
211.777
200.223
198.958
206.982
219.091
196.107
244.251
301.042
289.597
402.905
472.061
528.039
524.195
489.844
469.418
371.537
288.724
287.282
269.839
260.788
258.413
261.642
270.144
312.738
389.191
514.948
589.425
585.537
564.737
553.34
503.352
470.638
397.858
361.939
342.906
343.451
354.21
368.559
386.672
403.747
421.541
443.914
463.368
487.182
504.498
488.69
430.156
392.044
386.028
394.148
407.261
421.638
430.114
440.067
450.311
455.768
456.92
454.801
451.062
448.282
448.921
454.461
464.016
475.019
484.203
490.832
495.634
498.682
500.095
500.321
500.068
499.757
499.763
500.116
500.796
501.535
502.299
502.936
503.546
504.004
504.506
504.833
505.297
505.629
505.964
281.932
306.184
293.995
275.189
270.387
273.785
282.672
291.762
298.439
303.189
305.899
307.766
307.381
305.836
301.994
294.543
282.548
262.343
245.777
327.953
475.81
519.554
456.269
421.236
410.34
486.364
490.428
375.06
281.395
184.09
146.266
153.301
143.002
134.341
154.863
196.902
213.664
199.717
280.774
323.571
362.522
505.993
501.889
534.953
501.092
322.132
236.826
266.835
264.297
258.345
243.661
234.037
231.481
234.93
228.49
318.091
447.145
570.293
622.397
568.217
543.62
530.135
443.792
424.017
297.506
240.444
226.463
224.112
233.066
248.582
275.684
299.307
334.471
400.399
439.236
481.145
513.743
506.172
449.438
396.857
380.885
386.911
402.392
418.867
430.451
443.112
454.199
460.66
462.614
461.371
458.546
456.563
457.478
462.906
471.657
481.562
489.412
494.504
497.704
499.335
499.778
499.516
498.978
498.67
498.751
499.239
500.017
500.822
501.627
502.286
502.911
503.378
503.895
504.23
504.716
505.042
505.408
281.934
306.177
293.983
275.156
270.319
273.697
282.559
291.619
298.241
302.956
305.575
307.323
306.852
305.125
300.989
293.146
280.498
259.04
242.266
331.14
471.537
507.422
441.094
406.294
391.782
437.385
203.557
212.783
217.742
313.151
348.88
449.913
521.316
498.6
521.344
209.261
297.32
469.161
589.438
629.169
557.476
530.242
510.784
380.657
291.185
336.322
410.123
470.382
520.082
516.856
460.41
399.355
377.057
382.078
399.845
417.093
430.277
443.778
455.196
462.545
465.599
465.338
463.232
461.576
462.47
467.517
475.604
484.888
492.202
496.419
498.594
499.373
499.286
498.67
498.059
497.803
497.977
498.587
499.443
500.298
501.131
501.805
502.441
502.916
503.445
503.787
504.288
504.616
504.997
281.932
306.182
293.989
275.127
270.218
273.565
282.385
291.409
297.953
302.608
305.1
306.666
306.065
304.074
299.507
291.093
277.491
254.221
237.223
333.377
465.301
489.44
404.955
372.784
362.224
390.423
198.441
211.062
240.395
327.855
349.827
492.07
527.676
496.599
499.892
219.036
304.912
505.062
608.782
630.485
541.038
509.452
480.166
331.862
194.762
223.607
297.032
426.85
513.337
528.46
473.683
399.768
369.553
375.319
396.394
413.122
428.212
443.03
455.541
464.401
469.291
470.739
469.998
468.622
469.108
473.142
480.058
488.02
494.477
497.916
499.006
498.837
497.998
497.004
496.395
496.294
496.681
497.51
498.499
499.434
500.313
501.01
501.666
502.156
502.705
503.063
503.586
503.926
504.322
281.935
306.157
293.958
275.07
270.074
273.384
282.152
291.13
297.577
302.141
304.483
305.809
305.035
302.706
297.581
288.456
273.674
248.292
230.874
334.115
455.179
470.984
380.491
346.07
332.705
334.031
208.145
222.114
223.26
307.597
356.28
503.734
523.39
484.348
487.106
277.647
363.02
555.822
628.853
622.692
514.32
478.713
431.566
299.131
192.499
199.098
221.082
288.441
461.626
517.763
471.696
392.737
358.101
369.594
389.772
404.603
421.841
439.634
455
465.699
472.843
476.811
477.855
477.081
476.679
478.479
483.102
489.707
494.897
497.008
497.022
495.992
494.627
493.686
493.42
493.714
494.644
495.802
497.003
498.057
499.001
499.735
500.425
500.945
501.533
501.918
502.482
502.84
503.269
281.941
306.128
293.913
274.993
269.905
273.175
281.875
290.789
297.127
301.563
303.745
304.772
303.787
301.06
295.285
285.377
269.342
241.915
222.635
327.833
440.24
450.375
352.542
314.029
294.059
289.182
209.41
232.668
230.737
222.168
375.677
483.105
496.123
466.825
483.014
293.969
414.066
597.165
649.141
587.84
478.643
442.213
411.202
313.387
214.034
226.114
228
238.9
286.574
429.761
431.139
352.111
340.227
357.023
371.032
387.46
411.794
437.739
455.798
468.543
477.34
483.189
485.453
484.649
482.558
482.066
483.933
488.169
490.938
491.629
491.056
489.684
488.677
488.411
488.841
490.057
491.693
493.3
494.789
496.002
497.039
497.834
498.587
499.164
499.817
500.251
500.879
501.262
501.751
281.951
306.093
293.85
274.878
269.688
272.911
281.523
290.333
296.542
300.776
302.774
303.392
302.126
298.883
292.298
281.442
264.104
234.637
211.198
312.782
425.696
436.85
337.378
297.8
272.046
258.018
177.176
215.672
216.648
288.344
442.584
429.228
448.842
426.793
456.505
292.179
415.325
596.101
641.801
553.654
457.551
425.504
416.616
350.636
209.316
218.098
199.909
301.093
333.762
335.306
337.865
313.064
299.625
308.424
323.451
356.198
401.693
439.054
463.091
476.343
484.78
489.328
490.263
488.856
485.383
482.773
482.054
481.313
480.101
478.866
478.081
477.936
478.513
479.979
482.053
484.422
486.83
488.984
490.853
492.323
493.557
494.508
495.408
496.109
496.889
497.417
498.166
498.589
499.21
281.961
306.07
293.801
274.744
269.492
272.674
281.215
289.904
296.008
300.031
301.874
302.102
300.582
296.859
289.606
277.967
259.903
229.903
199.896
284.731
413.385
435.758
346.298
303.967
279.482
267.699
152.128
177.032
264.874
463.455
511.861
379.221
386.597
385.142
415.829
271.316
370.576
576.188
629.626
556.032
467.637
442.259
440.555
397.358
216.333
216.406
210.362
319.779
383.217
402.504
352.537
309.338
281.304
258.302
282.499
341.067
404.766
452.089
478.694
489.806
492.25
491.903
489.404
483.946
478.582
474.776
471.718
467.618
464.265
462.939
463.481
465.714
468.771
472.013
475.205
478.248
481.144
483.677
485.88
487.646
489.157
490.348
491.461
492.338
493.283
493.933
494.844
495.31
496.116
281.971
306.057
293.768
274.637
269.369
272.523
281.017
289.616
295.642
299.535
301.265
301.243
299.551
295.501
287.83
275.763
257.387
228.049
194.128
253.814
400.76
438.106
365.669
320.63
301.308
297.137
157.787
242.895
402.069
523.019
527.263
364.1
317.148
348.829
376.928
286.338
360.416
562.149
621.398
561.195
486.59
473.69
473.26
438.256
230.225
227.957
192.213
274.776
336.479
369.004
367.472
298.838
260.425
232.46
272.836
342.065
411.275
462.871
490.767
497.654
494.823
485
474.268
465.274
459.49
456.887
455.122
452.799
451.541
452.19
454.832
458.592
462.691
466.542
470.118
473.412
476.531
479.299
481.757
483.774
485.521
486.913
488.204
489.226
490.307
491.058
492.108
492.603
493.582
281.98
306.048
293.733
274.55
269.273
272.415
280.866
289.406
295.353
299.168
300.769
300.633
298.754
294.47
286.446
274.195
255.525
227.201
192.333
223.487
381.633
440.964
394.482
351.587
338.957
337.656
265.426
377.469
457.426
534.922
508.438
363.898
264.649
330.834
358.058
308.749
361.655
549.285
613.787
571.102
505.577
494.682
509.197
481.393
242.125
244.719
202.438
290.455
327.346
353.257
358.742
293.569
250.872
226.205
272.217
342.513
412.855
465.569
494.09
499.183
490.155
471.116
454.535
443.313
438.544
438.03
439.138
440.506
442.463
445.537
449.511
453.85
458.114
462.067
465.774
469.199
472.486
475.456
478.142
480.375
482.326
483.889
485.336
486.484
487.687
488.531
489.703
490.233
491.36
281.989
306.023
293.681
274.485
269.194
272.331
280.744
289.257
295.137
298.908
300.402
300.199
298.184
293.722
285.453
273.08
254.246
226.783
192.239
202.855
360.084
440.882
425.567
376.726
361.999
403.241
428.182
448.486
470.998
524.773
479.838
357.809
228.976
325.327
363.686
336.922
364.361
539.03
607.478
580.947
520.806
511.847
530.919
503.997
252.75
249.74
226.906
301.074
330.91
349.769
352.826
294.063
251.567
228.243
273.473
341.685
410.994
463.514
490.381
492.608
479.581
456.867
438.088
426.809
423.47
424.797
428.958
433.371
437.606
441.933
446.33
450.614
454.701
458.553
462.28
465.81
469.238
472.373
475.236
477.635
479.739
481.433
482.999
484.246
485.547
486.467
487.741
488.304
489.556
281.99
306.018
293.669
274.466
269.143
272.272
280.659
289.16
294.999
298.741
300.162
299.914
297.816
293.235
284.833
272.351
253.472
226.482
193.173
188.67
343.017
439.359
441.253
402.888
388.141
426.205
468.614
348.269
310.878
303.682
300.595
305.858
326.947
376.522
413.757
463.544
456.065
470.43
509.01
465.106
357.487
218.613
293.815
344.823
323.095
312.177
316.243
295.306
203.524
106.716
92.5233
100.011
126.244
226.207
340.629
365.029
531.673
600.56
588.798
529.954
521.204
553.312
535.102
420.283
218.797
213.24
251.109
263.54
212.186
190.732
182.471
196.168
259.515
247.958
242.626
304.126
334.563
352.246
350.74
296.396
255.212
231.928
273.351
338.282
405.246
455.71
480.675
481.808
467.775
445.231
427.331
417.618
415.518
418.059
423.874
429.777
435.086
439.923
444.382
448.496
452.391
456.12
459.832
463.435
466.981
470.236
473.221
475.732
477.94
479.723
481.37
482.687
484.058
485.032
486.377
486.968
488.303
281.986
306.027
293.677
274.461
269.07
272.182
280.531
289.018
294.801
298.499
299.813
299.501
297.285
292.526
283.95
271.282
252.361
226.015
195.312
175.269
291.123
432.229
473.574
439.067
425.185
448.072
482.088
460.418
461.288
463.702
475.178
484.633
500.987
500.529
494.334
481.454
426.718
466.723
494.706
444.754
358.271
263.401
228.216
271.595
297.325
310.39
324.238
318.939
267.016
153.117
116.562
129.681
133.503
231.385
333.03
353.083
510.998
592.447
602.08
547.369
540.631
569.876
561.654
465.666
251.233
273.586
301.742
292.319
245.35
226.782
198.592
236.794
254.866
225.138
259.637
305.816
338.839
359.246
351.794
302.749
264.429
238.407
270.059
327.731
389.082
435.158
456.843
457.26
444.025
425.296
411.744
406.348
407.372
412.444
419.48
426.282
432.27
437.328
441.594
445.33
448.856
452.34
455.989
459.688
463.431
466.898
470.081
472.765
475.133
477.053
478.829
480.255
481.735
482.797
484.248
484.895
486.351
281.986
306.009
293.655
274.435
268.97
272.058
280.367
288.829
294.551
298.192
299.372
298.981
296.615
291.625
282.842
269.908
250.94
225.309
198.033
175.129
213.768
389.453
472.181
501.169
519.647
533.8
548.492
569.847
576.332
585.026
603.111
601.19
581.181
529.122
455.938
382.291
394.423
466.038
464.088
431.043
393.148
380.2
352.415
324.506
316.245
307.32
311.629
298.129
216.766
149.791
139.09
149.589
150.413
187.153
279.704
303.7
458.657
574.54
612.986
569.407
561.977
612.036
593.588
509.806
291.289
286.412
316.91
312.057
277.353
254.53
224.789
216.959
215.541
210.364
277.679
311.195
351.458
375.965
359.614
309.754
266.927
235.482
250.498
293.749
342.878
381.573
402.152
406.317
402.539
397.317
395.919
397.673
402.975
410.406
418.022
424.796
430.322
434.656
438.104
441.079
443.994
447.09
450.597
454.363
458.327
462.078
465.564
468.516
471.125
473.246
475.21
476.795
478.438
479.631
481.243
481.97
483.607
281.991
305.986
293.624
274.392
268.864
271.92
280.189
288.602
294.266
297.829
298.861
298.38
295.833
290.596
281.538
268.323
249.177
224.064
199.236
185.269
175.297
251.439
388.922
461.104
504.467
532.919
557.787
593.398
631.715
643.803
615.898
528.541
415.955
329.236
313.792
332.466
410.81
456.05
438.652
429.652
514.801
552.058
542.426
515.189
477.273
373.465
252.534
191.29
165.574
150.519
144.219
178.381
193.355
195.462
204.262
215.614
324.363
515.378
594.394
584.193
588.19
610.537
581.617
492.956
279.437
309.376
341.463
343.715
299.703
268.675
232.402
218.875
221.92
259.305
306.547
337.861
376.713
398.617
376.708
317.171
264.045
209.092
185.272
219.671
272.021
312.408
340.476
359.702
372.55
381.514
389.012
396.319
403.906
411.712
419.015
424.939
429.127
431.918
433.918
435.726
437.819
440.438
443.758
447.549
451.707
455.74
459.551
462.811
465.727
468.12
470.359
472.178
474.074
475.45
477.312
478.147
480.037
281.998
305.96
293.586
274.323
268.744
271.756
279.988
288.314
293.923
297.374
298.24
297.634
294.864
289.31
279.934
266.24
246.688
221.17
198.739
191.159
187.593
225.252
323.995
385.98
425.074
463.409
487.54
523.314
560.325
583.404
572.084
526.328
461.907
397.731
359.362
369.014
413.609
411.773
420.407
543.717
653.828
644.57
642.741
629.597
595.873
451.146
286.759
276.072
260.109
257.907
265.204
275.299
276.025
274.919
273.128
266.456
256.335
305.658
495.929
548.429
558.881
558.238
516.386
432.444
269.02
296.629
330.488
331.853
284.342
262.016
255.565
262.342
283.007
316.736
359.704
382.548
393.34
391.755
368.183
298.091
249.163
229.64
244.09
282.323