/*--------------------------------*- C++ -*----------------------------------*\
| =========                 |                                                 |
| \\      /  F ield         | OpenFOAM: The Open Source CFD Toolbox           |
|  \\    /   O peration     | Version:  v2006                                 |
|   \\  /    A nd           | Website:  www.openfoam.com                      |
|    \\/     M anipulation  |                                                 |
\*---------------------------------------------------------------------------*/
FoamFile
{
    version     2.0;
    format      ascii;
    class       volScalarField;
    location    "0.55";
    object      p;
}
// * * * * * * * * * * * * * * * * * * * * * * * * * * * * * * * * * * * * * //

dimensions      [0 2 -2 0 0 0 0];


internalField   nonuniform List<scalar> 
374400
(
0.113626
0.0424079
-0.0434505
-0.0783422
-0.0812845
-0.0786713
-0.0810476
-0.0891378
-0.101161
-0.115473
-0.13085
-0.146363
-0.162003
-0.177506
-0.192494
-0.206656
-0.219994
-0.232832
-0.244832
-0.255386
-0.263687
-0.269726
-0.274227
-0.27731
-0.279709
-0.281472
-0.28263
-0.284343
-0.286555
-0.289195
-0.292636
-0.295785
-0.297897
-0.299505
-0.300648
-0.301383
-0.302458
-0.303823
-0.305403
-0.307359
-0.308977
-0.309932
-0.310585
-0.310994
-0.311237
-0.311567
-0.311908
-0.312181
-0.31221
-0.312093
-0.311812
-0.311326
-0.31081
-0.31032
-0.309968
-0.309413
-0.308565
-0.307349
-0.305302
-0.302776
-0.300691
-0.298888
-0.29743
-0.296431
-0.294896
-0.292712
-0.289808
-0.285369
-0.28043
-0.276631
-0.273457
-0.270967
-0.269284
-0.266723
-0.263167
-0.258561
-0.251756
-0.24139
-0.225594
-0.203382
-0.17546
-0.143414
-0.10816
-0.0718165
-0.0383817
-0.0102818
0.0124972
0.0305237
0.044533
0.0552186
0.0631654
0.0688282
0.0725714
0.0747057
0.0755152
0.0752409
0.0740917
0.0722525
0.0698757
0.0670846
0.0639782
0.0606347
0.0571154
0.0534683
0.0497307
0.0459288
0.0420817
0.0382011
0.0342926
0.0303569
0.0263961
0.0224104
0.0184055
0.0143713
0.0103217
0.00633678
0.000421283
0.116304
0.0451138
-0.0407142
-0.0755819
-0.0784861
-0.0758286
-0.0781584
-0.0862101
-0.0982078
-0.112512
-0.127873
-0.143493
-0.159262
-0.174947
-0.190192
-0.204693
-0.218456
-0.231807
-0.244374
-0.255484
-0.264266
-0.270678
-0.275472
-0.278765
-0.281332
-0.283225
-0.284469
-0.286313
-0.288697
-0.29155
-0.295286
-0.298726
-0.301042
-0.302811
-0.304072
-0.304885
-0.306077
-0.307593
-0.309357
-0.311563
-0.313416
-0.314527
-0.3153
-0.315795
-0.316093
-0.316503
-0.316948
-0.317341
-0.317481
-0.317446
-0.317257
-0.316855
-0.316398
-0.315946
-0.315616
-0.315092
-0.314282
-0.313102
-0.311092
-0.308579
-0.306489
-0.304672
-0.303199
-0.302187
-0.30063
-0.298411
-0.29546
-0.290938
-0.285899
-0.282015
-0.278766
-0.276216
-0.27449
-0.271861
-0.268214
-0.263487
-0.256505
-0.245869
-0.229663
-0.206882
-0.178262
-0.145433
-0.109346
-0.0721863
-0.0380461
-0.00940428
0.0137486
0.031998
0.0461097
0.0568032
0.0646921
0.070258
0.0738761
0.0758744
0.0765438
0.0761316
0.0748532
0.072895
0.0704121
0.0675265
0.0643367
0.0609224
0.0573441
0.0536485
0.0498719
0.0460409
0.0421702
0.0382712
0.0343491
0.0304036
0.0264342
0.0224413
0.018432
0.0143924
0.0103353
0.00634559
0.00042211
0.121705
0.0505314
-0.0352595
-0.0700584
-0.0728753
-0.0701196
-0.0723476
-0.0803058
-0.0922323
-0.106496
-0.121814
-0.137633
-0.153623
-0.169658
-0.185405
-0.20058
-0.215198
-0.229594
-0.243324
-0.25559
-0.265367
-0.272553
-0.277962
-0.281696
-0.284622
-0.286788
-0.288214
-0.290328
-0.293072
-0.296371
-0.300726
-0.304772
-0.307511
-0.309612
-0.311119
-0.312094
-0.313526
-0.315357
-0.317505
-0.320224
-0.322553
-0.323981
-0.324996
-0.325664
-0.326076
-0.326651
-0.327302
-0.327938
-0.328292
-0.328414
-0.328406
-0.32816
-0.327814
-0.327435
-0.327151
-0.326691
-0.325948
-0.324835
-0.322874
-0.320351
-0.318223
-0.316366
-0.314854
-0.313816
-0.312216
-0.309923
-0.306863
-0.302151
-0.29687
-0.292793
-0.289384
-0.28671
-0.284902
-0.282149
-0.27832
-0.273354
-0.266013
-0.254824
-0.237767
-0.213793
-0.183695
-0.149231
-0.111442
-0.0726488
-0.0371375
-0.00746819
0.0163872
0.0350575
0.0493597
0.0600727
0.0678512
0.073217
0.0765842
0.0783061
0.0786887
0.0779948
0.0764466
0.0742373
0.0715278
0.0684447
0.0650844
0.061522
0.0578185
0.0540232
0.0501683
0.0462737
0.0423547
0.0384195
0.0344703
0.0305045
0.0265192
0.0225125
0.0184888
0.0144366
0.0103703
0.00636941
0.000429145
0.129792
0.0586481
-0.0270684
-0.0617428
-0.0644029
-0.0614625
-0.0634947
-0.0712646
-0.0830286
-0.0971869
-0.11251
-0.128416
-0.144657
-0.161168
-0.17762
-0.193781
-0.209688
-0.225697
-0.241263
-0.255377
-0.266766
-0.275217
-0.28163
-0.286086
-0.289599
-0.292213
-0.293937
-0.296496
-0.299832
-0.303868
-0.30925
-0.314309
-0.317757
-0.320415
-0.322333
-0.323579
-0.325413
-0.327773
-0.330564
-0.33414
-0.337276
-0.339244
-0.340668
-0.341629
-0.342228
-0.343078
-0.344079
-0.345126
-0.345851
-0.346244
-0.34655
-0.346583
-0.346432
-0.346176
-0.345965
-0.345603
-0.344975
-0.343975
-0.342115
-0.339617
-0.337456
-0.335538
-0.333961
-0.33287
-0.33118
-0.328757
-0.325508
-0.320487
-0.314842
-0.310458
-0.306772
-0.303872
-0.301904
-0.298902
-0.294737
-0.289334
-0.281349
-0.269183
-0.250664
-0.224685
-0.192144
-0.155004
-0.114467
-0.0730782
-0.0354343
-0.00421036
0.0206688
0.0399136
0.0544363
0.065103
0.0726439
0.07766
0.0806108
0.0818826
0.0818141
0.0806838
0.0787334
0.0761582
0.0731187
0.0697444
0.0661339
0.0623596
0.0584812
0.0545439
0.0505746
0.0465941
0.0426102
0.0386264
0.0346408
0.0306473
0.0266395
0.0226135
0.0185736
0.0145061
0.0104203
0.00639939
0.000439564
0.14054
0.06945
-0.0161447
-0.0506189
-0.0530186
-0.049766
-0.0514544
-0.0588766
-0.0703171
-0.0842121
-0.0993949
-0.115297
-0.131735
-0.148746
-0.166024
-0.183458
-0.201083
-0.219314
-0.237482
-0.254271
-0.268023
-0.278344
-0.286247
-0.291784
-0.29618
-0.299464
-0.301633
-0.30486
-0.309083
-0.314226
-0.321145
-0.327713
-0.332214
-0.335702
-0.338233
-0.339883
-0.342317
-0.345459
-0.349199
-0.354058
-0.358368
-0.361111
-0.363126
-0.364509
-0.365382
-0.366633
-0.368133
-0.369759
-0.370995
-0.371759
-0.37249
-0.372878
-0.372973
-0.372873
-0.37276
-0.372535
-0.372041
-0.371157
-0.369352
-0.366756
-0.364457
-0.362408
-0.360715
-0.359546
-0.35773
-0.355089
-0.351525
-0.345971
-0.339662
-0.334763
-0.330663
-0.327444
-0.325268
-0.321951
-0.317324
-0.311319
-0.302433
-0.288883
-0.268242
-0.239313
-0.20317
-0.162122
-0.117639
-0.0726282
-0.0321146
0.0011201
0.0272632
0.0471596
0.0618595
0.0723685
0.0795063
0.0839814
0.0863135
0.0869364
0.0862169
0.0844626
0.0819263
0.0788177
0.0753038
0.0715156
0.0675511
0.0634795
0.0593563
0.0552223
0.0511009
0.0470029
0.0429348
0.0388901
0.034859
0.0308313
0.0267979
0.0227489
0.0186855
0.0145949
0.0104866
0.00644206
0.000453725
0.153887
0.0828827
-0.00252313
-0.0366913
-0.0386861
-0.0349362
-0.0360589
-0.0428865
-0.0537402
-0.0670959
-0.081854
-0.0975091
-0.113931
-0.13132
-0.149526
-0.168328
-0.188031
-0.209126
-0.230801
-0.251307
-0.26843
-0.281456
-0.291529
-0.298667
-0.304367
-0.308632
-0.311455
-0.315662
-0.321199
-0.327983
-0.337199
-0.346039
-0.352128
-0.356863
-0.360313
-0.362567
-0.365899
-0.370218
-0.375393
-0.38217
-0.388269
-0.392201
-0.395115
-0.397136
-0.398419
-0.400265
-0.402525
-0.405042
-0.407074
-0.408419
-0.409813
-0.410778
-0.411264
-0.411405
-0.41143
-0.411388
-0.411106
-0.410422
-0.408775
-0.40618
-0.403762
-0.401537
-0.399664
-0.398351
-0.396296
-0.393323
-0.389292
-0.382997
-0.375847
-0.370239
-0.365487
-0.361734
-0.359178
-0.355268
-0.34985
-0.342819
-0.332432
-0.316635
-0.292697
-0.259321
-0.217854
-0.17111
-0.120994
-0.0709638
-0.0266401
0.00910797
0.0366834
0.0571811
0.0718688
0.0819264
0.0883925
0.0920294
0.0934597
0.0931773
0.0915812
0.0890137
0.0857373
0.0819623
0.0778609
0.073567
0.069175
0.064747
0.0603347
0.0559737
0.0516769
0.0474489
0.0432892
0.0391821
0.0351092
0.0310503
0.026992
0.0229191
0.0188285
0.0147093
0.0105726
0.00649481
0.000473834
0.169714
0.0988378
0.013711
-0.0200091
-0.0214025
-0.0169026
-0.0171505
-0.023021
-0.0328782
-0.0452484
-0.0591123
-0.0741064
-0.0900056
-0.107406
-0.126204
-0.146365
-0.168423
-0.193021
-0.219252
-0.244795
-0.26664
-0.283495
-0.296694
-0.306145
-0.313726
-0.319411
-0.323183
-0.328819
-0.336266
-0.345441
-0.357997
-0.370125
-0.378509
-0.385048
-0.389826
-0.392955
-0.397585
-0.403594
-0.410815
-0.420312
-0.428883
-0.43443
-0.438561
-0.441446
-0.443286
-0.445943
-0.449201
-0.452868
-0.455902
-0.457965
-0.460152
-0.461723
-0.46261
-0.462991
-0.463167
-0.463328
-0.463206
-0.462609
-0.460834
-0.457765
-0.454876
-0.452252
-0.45005
-0.448526
-0.446141
-0.442608
-0.43779
-0.430187
-0.421439
-0.414633
-0.408954
-0.404507
-0.401509
-0.396938
-0.390536
-0.382228
-0.369944
-0.351237
-0.322834
-0.283292
-0.234401
-0.179827
-0.122233
-0.065869
-0.0170311
0.0214496
0.0503725
0.0711991
0.0855055
0.0947325
0.100096
0.102515
0.102696
0.101194
0.0984316
0.0947758
0.0905064
0.0858497
0.0809811
0.076031
0.0710884
0.0662107
0.0614373
0.0567891
0.052283
0.0479098
0.0436558
0.0394884
0.035378
0.0312954
0.0272154
0.023118
0.0189994
0.0148466
0.0106747
0.00655658
0.000499535
0.187815
0.117121
0.0323852
-0.000710499
-0.00124922
0.00434026
0.00538559
0.000967067
-0.00731632
-0.0180362
-0.0302351
-0.0435573
-0.0583486
-0.0749416
-0.093675
-0.11476
-0.139031
-0.167591
-0.199521
-0.231847
-0.260324
-0.282713
-0.300525
-0.313407
-0.323774
-0.331568
-0.336753
-0.344522
-0.354836
-0.367608
-0.385207
-0.402317
-0.414164
-0.423412
-0.430179
-0.434615
-0.441186
-0.449728
-0.46002
-0.4736
-0.485931
-0.493937
-0.49992
-0.504117
-0.506799
-0.510678
-0.515504
-0.521008
-0.525661
-0.528868
-0.532319
-0.534954
-0.536539
-0.537325
-0.537717
-0.538148
-0.53833
-0.537982
-0.53632
-0.533086
-0.52983
-0.526723
-0.524056
-0.522162
-0.51917
-0.514846
-0.508959
-0.499739
-0.489252
-0.480951
-0.47385
-0.468217
-0.464359
-0.458442
-0.450287
-0.439709
-0.424121
-0.400503
-0.364988
-0.315943
-0.255811
-0.189586
-0.121344
-0.0565253
-0.00214691
0.0392268
0.0691736
0.0897824
0.10307
0.110835
0.114507
0.115196
0.113672
0.110544
0.106305
0.101293
0.0958143
0.090112
0.0843395
0.0786295
0.0730651
0.067684
0.0625108
0.0575638
0.0528391
0.04833
0.0440013
0.0397974
0.0356694
0.0315772
0.0274847
0.0233655
0.0192168
0.0150231
0.0108075
0.00663085
0.000539703
0.207867
0.137422
0.053214
0.0209611
0.0215838
0.0286694
0.0315369
0.0292242
0.023298
0.0151568
0.00569611
-0.00485409
-0.0169128
-0.0313037
-0.048472
-0.0692798
-0.0950208
-0.127507
-0.166273
-0.207519
-0.245267
-0.275738
-0.300448
-0.318456
-0.333011
-0.343996
-0.35133
-0.362351
-0.377033
-0.395293
-0.420587
-0.445264
-0.462338
-0.475646
-0.485368
-0.491736
-0.501161
-0.513398
-0.528119
-0.547493
-0.564997
-0.576313
-0.584767
-0.590707
-0.594505
-0.599996
-0.606787
-0.614487
-0.62092
-0.625322
-0.630006
-0.633446
-0.635465
-0.636433
-0.636926
-0.637457
-0.637514
-0.63675
-0.633931
-0.628768
-0.62392
-0.619561
-0.615933
-0.613442
-0.609551
-0.603731
-0.595816
-0.583372
-0.569115
-0.558159
-0.549141
-0.542134
-0.537447
-0.530322
-0.520283
-0.507259
-0.488002
-0.458664
-0.414144
-0.352362
-0.276716
-0.194644
-0.112769
-0.038056
0.022053
0.0657517
0.0957593
0.115074
0.126188
0.131496
0.132611
0.13087
0.127097
0.121898
0.115731
0.108989
0.101982
0.094956
0.0880803
0.0814534
0.0751362
0.0691487
0.0635056
0.0582145
0.0532665
0.0486335
0.0442597
0.0400562
0.0359475
0.0318723
0.0277828
0.023649
0.0194721
0.0152343
0.0109657
0.00670717
0.00059194
0.228633
0.158493
0.0749359
0.0437277
0.045802
0.0547956
0.0600237
0.0605019
0.0578057
0.0533422
0.0479887
0.0418858
0.0344176
0.024673
0.0115404
-0.00625796
-0.0311719
-0.0661932
-0.111999
-0.164304
-0.214959
-0.257321
-0.292372
-0.318223
-0.339221
-0.355146
-0.365783
-0.381791
-0.403214
-0.429915
-0.466917
-0.502831
-0.527498
-0.54661
-0.560551
-0.5697
-0.583243
-0.600711
-0.621668
-0.64926
-0.674274
-0.690574
-0.70284
-0.711522
-0.717106
-0.725196
-0.735218
-0.746651
-0.756332
-0.762997
-0.770115
-0.7754
-0.778481
-0.779941
-0.780614
-0.781263
-0.78132
-0.780227
-0.776457
-0.76998
-0.763868
-0.758177
-0.753397
-0.750005
-0.744683
-0.737221
-0.72727
-0.712108
-0.695338
-0.682018
-0.670435
-0.661148
-0.654702
-0.644763
-0.631151
-0.613419
-0.587181
-0.547273
-0.487166
-0.403869
-0.30242
-0.195485
-0.0944043
-0.00782458
0.0574122
0.101812
0.130103
0.146291
0.154048
0.156019
0.153944
0.149045
0.142419
0.134601
0.126071
0.117238
0.108435
0.0998916
0.0917701
0.0841354
0.0770139
0.070372
0.0642404
0.0586109
0.0534819
0.0487931
0.0444363
0.0402975
0.0362606
0.0322325
0.0281626
0.0240204
0.0198099
0.0155115
0.0111756
0.00680194
0.000679598
0.248571
0.178774
0.0959367
0.0658935
0.0696096
0.0807749
0.088733
0.0925191
0.0937533
0.0939279
0.0939793
0.0940523
0.0934771
0.0911718
0.0857764
0.0750246
0.0553733
0.0218649
-0.0288963
-0.0931512
-0.16047
-0.219558
-0.269956
-0.307824
-0.33891
-0.362679
-0.378645
-0.40274
-0.43499
-0.475202
-0.530925
-0.584614
-0.620809
-0.64847
-0.668356
-0.681227
-0.700096
-0.724491
-0.753538
-0.791242
-0.825013
-0.846887
-0.863318
-0.87495
-0.882438
-0.893281
-0.906599
-0.921684
-0.933955
-0.942258
-0.950774
-0.956039
-0.958559
-0.959223
-0.959417
-0.959277
-0.957349
-0.953064
-0.943337
-0.9291
-0.917289
-0.907402
-0.899634
-0.894491
-0.886615
-0.875084
-0.860009
-0.837433
-0.81313
-0.795603
-0.781821
-0.771317
-0.764466
-0.754215
-0.739279
-0.719627
-0.689809
-0.642716
-0.567688
-0.458575
-0.323278
-0.184756
-0.0612109
0.0376761
0.106742
0.149543
0.173516
0.184301
0.186882
0.183607
0.177123
0.16848
0.158484
0.147734
0.136638
0.125534
0.11476
0.104588
0.0951543
0.0864729
0.0785096
0.0712071
0.0645749
0.0586129
0.0533393
0.048662
0.0444214
0.0404367
0.0365402
0.0326076
0.0285854
0.024444
0.020199
0.0158329
0.0114231
0.00690812
0.000789891
0.267026
0.197587
0.115492
0.0866774
0.0921273
0.105603
0.116512
0.123929
0.129587
0.135136
0.141668
0.14948
0.158075
0.166428
0.173018
0.175015
0.167498
0.142843
0.092872
0.0180075
-0.0708333
-0.154986
-0.230037
-0.287355
-0.334314
-0.369984
-0.393586
-0.429111
-0.477296
-0.536866
-0.618185
-0.693484
-0.742226
-0.778837
-0.80512
-0.822311
-0.847516
-0.879061
-0.916237
-0.963946
-1.00723
-1.03732
-1.06136
-1.0793
-1.09109
-1.10844
-1.13072
-1.15688
-1.17936
-1.19403
-1.20843
-1.21713
-1.22004
-1.2194
-1.21788
-1.21432
-1.20772
-1.19668
-1.17619
-1.15203
-1.13457
-1.12052
-1.10983
-1.10252
-1.09161
-1.07817
-1.06218
-1.04114
-1.02085
-1.00487
-0.990112
-0.977619
-0.968364
-0.95368
-0.933756
-0.907004
-0.866389
-0.802324
-0.698397
-0.540115
-0.343642
-0.155626
-0.00389101
0.104542
0.171107
0.206571
0.222479
0.226303
0.222266
0.213885
0.202724
0.189865
0.176098
0.161973
0.147903
0.134145
0.121087
0.109105
0.0982807
0.0885148
0.0797081
0.0717141
0.0645539
0.0582746
0.0529195
0.0483577
0.0443461
0.0406086
0.036915
0.0331134
0.0291464
0.0249968
0.0207035
0.0162497
0.0117493
0.00706268
0.000931099
0.28353
0.214441
0.13307
0.10549
0.112669
0.128456
0.142343
0.153465
0.163764
0.175051
0.188715
0.205356
0.2249
0.246747
0.269743
0.29114
0.305085
0.300919
0.263079
0.183934
0.0722345
-0.0412302
-0.145457
-0.226543
-0.294543
-0.347893
-0.384008
-0.440278
-0.520519
-0.625343
-0.771439
-0.901092
-0.981077
-1.03727
-1.07355
-1.09598
-1.1269
-1.1614
-1.1965
-1.23357
-1.26124
-1.28013
-1.2969
-1.31134
-1.32172
-1.338
-1.36057
-1.38945
-1.41358
-1.42873
-1.44366
-1.4497
-1.44931
-1.44589
-1.4429
-1.4375
-1.42695
-1.40919
-1.37512
-1.33336
-1.30381
-1.28193
-1.26643
-1.25613
-1.23984
-1.21558
-1.18506
-1.14063
-1.10069
-1.07786
-1.06406
-1.05531
-1.04997
-1.04277
-1.03137
-1.01464
-0.986501
-0.935297
-0.830792
-0.632896
-0.366304
-0.116197
0.0714246
0.191088
0.252851
0.277192
0.280856
0.273016
0.259601
0.24415
0.2275
0.210185
0.192678
0.175432
0.158544
0.14216
0.1268
0.112997
0.10086
0.0900789
0.0805019
0.0718727
0.0641471
0.057524
0.0521261
0.0477834
0.0441256
0.0407467
0.0373356
0.0337036
0.029803
0.0256415
0.0212882
0.0167319
0.0121332
0.00725893
0.00111191
0.297085
0.228262
0.147521
0.121073
0.129817
0.147663
0.164195
0.178699
0.193271
0.209925
0.230428
0.255732
0.286392
0.322602
0.36419
0.40951
0.453308
0.482976
0.473172
0.398867
0.262328
0.107465
-0.054603
-0.205678
-0.348399
-0.469388
-0.553815
-0.68228
-0.846056
-1.02745
-1.21098
-1.31853
-1.36335
-1.38903
-1.40349
-1.41021
-1.41737
-1.42467
-1.43102
-1.44031
-1.46094
-1.49884
-1.54652
-1.59528
-1.63043
-1.68358
-1.75503
-1.84061
-1.90281
-1.93383
-1.95286
-1.94194
-1.91718
-1.88907
-1.86805
-1.83335
-1.77852
-1.70332
-1.59367
-1.50699
-1.4795
-1.45907
-1.4365
-1.42117
-1.40914
-1.41082
-1.41824
-1.41608
-1.40497
-1.39571
-1.38557
-1.3762
-1.3698
-1.3603
-1.34493
-1.31961
-1.27031
-1.17744
-0.992935
-0.688688
-0.340587
-0.0444762
0.167016
0.291047
0.34064
0.347659
0.335834
0.316509
0.294632
0.272668
0.251031
0.229845
0.209185
0.189125
0.169454
0.150291
0.132376
0.11658
0.103113
0.0914422
0.0812006
0.0718676
0.0635277
0.0565553
0.0511641
0.0471138
0.0438886
0.0409267
0.0378223
0.0343631
0.0305213
0.02633
0.0219013
0.0172289
0.0125303
0.00746083
0.00131527
0.307106
0.238402
0.158132
0.132633
0.142629
0.162047
0.180618
0.197789
0.215754
0.236709
0.262708
0.295145
0.335025
0.383526
0.441666
0.509471
0.58403
0.653282
0.6849
0.630856
0.463137
0.213559
-0.107388
-0.412493
-0.657411
-0.822908
-0.926026
-1.05948
-1.17639
-1.2733
-1.39676
-1.49399
-1.52704
-1.55379
-1.58033
-1.59975
-1.62598
-1.6369
-1.62405
-1.55751
-1.47606
-1.47798
-1.52339
-1.59206
-1.65356
-1.76566
-1.95829
-2.23102
-2.43059
-2.51986
-2.57578
-2.5588
-2.50348
-2.43806
-2.38791
-2.30182
-2.15945
-1.95301
-1.6529
-1.378
-1.19517
-1.08963
-1.04663
-1.03112
-1.02939
-1.07052
-1.15207
-1.2903
-1.42792
-1.50848
-1.5587
-1.586
-1.60157
-1.62123
-1.63872
-1.64949
-1.63924
-1.56973
-1.31499
-0.837659
-0.337121
0.0418964
0.283746
0.402293
0.429171
0.412753
0.382641
0.350491
0.319953
0.29213
0.266888
0.243842
0.221956
0.20025
0.178366
0.156763
0.136603
0.119189
0.10488
0.0926871
0.0821154
0.0721692
0.0631384
0.0556839
0.0501833
0.0463641
0.0435459
0.0409901
0.0381876
0.0348972
0.0311113
0.0268941
0.0224001
0.0176229
0.0128466
0.00760067
0.00151475
0.313929
0.245234
0.165257
0.140512
0.151406
0.171885
0.191882
0.210935
0.231295
0.255329
0.285232
0.322777
0.369342
0.426723
0.497107
0.581949
0.680983
0.784371
0.858568
0.832323
0.63107
0.271437
-0.146289
-0.465533
-0.690012
-0.841766
-0.93882
-1.05131
-1.13953
-1.29569
-1.62211
-1.85916
-1.94972
-1.99199
-2.01107
-2.01564
-2.00661
-1.95757
-1.85409
-1.60513
-1.35283
-1.34336
-1.48031
-1.72637
-1.92928
-2.24999
-2.62789
-2.99704
-3.16747
-3.18902
-3.14781
-3.04276
-2.93078
-2.82869
-2.75055
-2.61883
-2.40654
-2.0941
-1.54487
-1.16714
-1.27706
-1.44392
-1.54891
-1.60721
-1.67273
-1.71095
-1.71904
-1.69629
-1.67744
-1.66942
-1.66492
-1.66259
-1.66081
-1.65926
-1.65726
-1.65297
-1.6422
-1.57449
-1.30925
-0.799444
-0.255416
0.151401
0.397331
0.499206
0.501519
0.463289
0.417162
0.373983
0.335996
0.303935
0.277273
0.254265
0.232323
0.209646
0.185966
0.162338
0.140592
0.1222
0.107417
0.0949469
0.083816
0.073186
0.063335
0.055252
0.0494669
0.0457118
0.0431651
0.0409234
0.0383749
0.0352374
0.031511
0.027283
0.022745
0.0178848
0.0130583
0.00765944
0.00168465
0.318529
0.249796
0.170001
0.145827
0.157339
0.178521
0.199495
0.219849
0.241847
0.26801
0.300612
0.341663
0.392865
0.456379
0.535202
0.631905
0.748251
0.876739
0.985354
0.97911
0.762487
0.381821
0.0548329
-0.199766
-0.391853
-0.550488
-0.717637
-0.979072
-1.32992
-1.75269
-2.15159
-2.20975
-2.19566
-2.20678
-2.23567
-2.25094
-2.26025
-2.22885
-2.13111
-1.81245
-1.40102
-1.46983
-1.6834
-2.00006
-2.26652
-2.68961
-3.15168
-3.5328
-3.60044
-3.52163
-3.36627
-3.20043
-3.06951
-2.96773
-2.89377
-2.76775
-2.55288
-2.2483
-1.88418
-1.88892
-1.97744
-1.98286
-1.93202
-1.89287
-1.82381
-1.73826
-1.64831
-1.57249
-1.5582
-1.57349
-1.59748
-1.61878
-1.63181
-1.64867
-1.65617
-1.65328
-1.62146
-1.53245
-1.25847
-0.732752
-0.175386
0.243201
0.486772
0.572802
0.554725
0.498937
0.440514
0.389178
0.346523
0.312626
0.285572
0.26254
0.24011
0.216395
0.191528
0.166988
0.144803
0.126208
0.111138
0.0982701
0.0860125
0.0744256
0.0635749
0.0547866
0.0487021
0.045
0.0426989
0.0407409
0.0384212
0.0354236
0.0317574
0.0275296
0.0229636
0.0180418
0.013187
0.00766053
0.00182055
0.321711
0.25293
0.173256
0.149509
0.161442
0.183111
0.204767
0.226038
0.249182
0.276835
0.311339
0.354841
0.409283
0.477086
0.561765
0.66668
0.795025
0.941358
1.07487
1.08449
0.866914
0.553893
0.358296
0.131053
-0.0916575
-0.342591
-0.731797
-1.41624
-2.07143
-2.36349
-2.49317
-2.34682
-2.26568
-2.23465
-2.23441
-2.24006
-2.25062
-2.23651
-2.18652
-1.84333
-1.45874
-1.51462
-1.7633
-2.22573
-2.63058
-3.17029
-3.65347
-3.9424
-3.85967
-3.67095
-3.43492
-3.2377
-3.07341
-2.93449
-2.84213
-2.73375
-2.59233
-2.43202
-2.37379
-2.34405
-2.14201
-1.87108
-1.64143
-1.54242
-1.46271
-1.41645
-1.36726
-1.34658
-1.40019
-1.46307
-1.52907
-1.5846
-1.6207
-1.65827
-1.66885
-1.68711
-1.69634
-1.61002
-1.27683
-0.703699
-0.123838
0.307954
0.551376
0.625852
0.592251
0.523435
0.45673
0.40052
0.355705
0.321152
0.293744
0.270109
0.24652
0.221472
0.195614
0.170664
0.148575
0.130087
0.114913
0.101455
0.0885924
0.0753317
0.063534
0.0541757
0.0479052
0.0442998
0.0422337
0.0405251
0.0384
0.0355207
0.0319075
0.0276839
0.0230999
0.0181331
0.0132628
0.00763286
0.00192633
0.324189
0.255372
0.175799
0.152385
0.164641
0.186698
0.208892
0.230885
0.254933
0.283755
0.319761
0.36519
0.422174
0.493336
0.582573
0.693845
0.831431
0.991666
1.14422
1.16827
0.963604
0.755204
0.73097
0.528313
0.233251
-0.688672
-1.58504
-2.23769
-2.7564
-2.60919
-2.48365
-2.34939
-2.28908
-2.25992
-2.2629
-2.27319
-2.2947
-2.28514
-2.23015
-1.92114
-1.54745
-1.58775
-1.89513
-2.61671
-3.16149
-3.53868
-3.89287
-3.78375
-3.6537
-3.58045
-3.4028
-3.19069
-3.02884
-2.87939
-2.75366
-2.65219
-2.598
-2.63735
-2.78502
-2.46481
-1.95096
-1.46639
-1.283
-1.26569
-1.3302
-1.46485
-1.49098
-1.50009
-1.55566
-1.64235
-1.74603
-1.85746
-1.94122
-1.99249
-1.97996
-1.99431
-1.97666
-1.80107
-1.34278
-0.699517
-0.0909496
0.355693
0.601172
0.667164
0.621385
0.542717
0.470339
0.410968
0.364961
0.329948
0.301884
0.277185
0.252153
0.225774
0.199113
0.173881
0.151925
0.133555
0.118236
0.104116
0.0900538
0.0758747
0.0632631
0.0534715
0.0471026
0.0436252
0.0417872
0.0403047
0.0383512
0.0355751
0.0320086
0.0277908
0.0231941
0.0181917
0.0133112
0.00759388
0.00201262
0.325991
0.257165
0.177654
0.154472
0.166972
0.189324
0.211914
0.234435
0.259149
0.28883
0.325943
0.372791
0.431636
0.505247
0.597781
0.713595
0.857697
1.02768
1.19342
1.22873
1.04458
0.93768
1.08409
1.06135
0.961453
-1.08851
-3.91801
-2.4571
-2.85013
-2.49158
-2.47821
-2.34388
-2.28518
-2.26352
-2.26278
-2.26564
-2.29196
-2.29235
-2.27341
-2.01038
-1.68321
-1.74541
-2.03298
-3.09176
-4.24198
-3.60268
-3.94393
-3.77628
-3.68655
-3.57491
-3.38192
-3.15419
-3.08774
-3.1942
-2.75696
-2.54704
-2.58856
-2.81233
-2.96391
-2.34049
-1.54177
-1.00056
-1.25717
-1.89533
-1.5932
-1.63494
-1.56938
-1.52617
-1.57195
-1.66513
-1.80092
-2.05664
-2.32233
-2.23226
-2.24983
-2.3473
-2.34876
-2.07698
-1.45572
-0.722846
-0.0785942
0.385224
0.635456
0.696541
0.642583
0.557558
0.481735
0.420489
0.373729
0.33815
0.309207
0.283221
0.256734
0.229237
0.201947
0.176545
0.154686
0.136278
0.120679
0.105951
0.0909963
0.0760297
0.0628203
0.0527486
0.0463591
0.043025
0.041393
0.0401019
0.0382883
0.0355953
0.0320668
0.027855
0.0232504
0.0182221
0.013336
0.00755098
0.00207476
0.327158
0.258354
0.178902
0.155832
0.168494
0.191051
0.213904
0.236772
0.261926
0.292174
0.330015
0.377798
0.437867
0.513085
0.607771
0.726532
0.874819
1.05103
1.22517
1.26692
1.09764
1.06366
1.32318
1.48815
1.59744
0.398955
-2.26009
-2.29825
-2.29593
-2.31001
-2.08032
-1.83442
-1.90151
-2.08496
-2.72563
-2.52817
-2.45145
-2.5775
-2.91867
-3.02295
-2.19059
-1.22417
-0.661847
-0.889001
-2.66577
-2.29914
-2.37486
-2.54242
-2.59246
-2.28671
-1.5532
-0.750313
-0.0763046
0.401887
0.656937
0.715457
0.656512
0.56772
0.489844
0.427435
0.380139
0.344098
0.314448
0.287448
0.259898
0.231625
0.203884
0.178414
0.156534
0.138028
0.122191
0.107033
0.0915057
0.0760277
0.0624454
0.0522096
0.045824
0.0425988
0.0411133
0.0399548
0.0382371
0.0356007
0.0320984
0.0278915
0.0232821
0.0182377
0.0133472
0.00751871
0.00211456
0.328853
0.260129
0.180793
0.157828
0.170728
0.193602
0.216853
0.240235
0.266042
0.297128
0.33605
0.385219
0.447099
0.524689
0.622534
0.745604
0.899954
1.0852
1.27166
1.32198
1.18354
1.26293
1.68538
2.09786
2.38371
2.0728
-2.25755
-2.30775
-2.31666
-2.39805
-2.22512
-2.0944
-2.09735
-2.11709
-2.31265
-2.4071
-2.38695
-2.57211
-3.03873
-3.00134
-1.8761
-0.740389
-0.256337
-0.439139
-2.31242
-2.33742
-2.51057
-2.75827
-2.91624
-2.60226
-1.72202
-0.807791
-0.0817269
0.42215
0.687031
0.742944
0.677336
0.583686
0.503087
0.43903
0.390855
0.353895
0.322945
0.294168
0.264954
0.23551
0.207167
0.181489
0.159429
0.140609
0.12429
0.108438
0.0920734
0.0758661
0.061769
0.0513216
0.0449668
0.0419233
0.0406697
0.039717
0.0381463
0.0355965
0.0321344
0.0279363
0.0233205
0.0182539
0.0133558
0.0074647
0.00217163
0.331036
0.262439
0.183242
0.160392
0.173608
0.196907
0.220679
0.244725
0.271383
0.30356
0.343887
0.394857
0.459078
0.539712
0.641562
0.769991
0.93169
1.12769
1.32916
1.39225
1.30546
1.5155
2.11181
2.72258
3.15423
3.08333
-2.28011
-2.34842
-2.39857
-2.52657
-2.43013
-2.3284
-2.26983
-2.07565
-2.07684
-2.29781
-2.3114
-2.59703
-3.12892
-2.81323
-1.36878
-0.172558
0.0735663
-0.156362
-2.49005
-2.50661
-2.67165
-2.93091
-3.17319
-2.92211
-1.94014
-0.915546
-0.114538
0.434533
0.720177
0.777261
0.705931
0.607884
0.52396
0.457757
0.40788
0.368908
0.335531
0.304033
0.272415
0.241409
0.212383
0.186357
0.16364
0.143966
0.126592
0.109595
0.0921713
0.0751447
0.0605359
0.0499296
0.0436916
0.0409397
0.0400225
0.0393553
0.0379841
0.0355516
0.0321455
0.0279624
0.0233427
0.0182501
0.0133466
0.00736879
0.00224337
0.333672
0.265228
0.186209
0.163499
0.177087
0.200905
0.225316
0.250171
0.277865
0.31137
0.353402
0.406558
0.473604
0.55788
0.664452
0.799046
0.968902
1.17632
1.39389
1.47526
1.4458
1.77788
2.51439
3.25108
3.76101
3.7834
-2.33881
-2.38987
-2.47383
-2.5627
-2.5183
-2.45565
-2.34145
-1.96211
-1.83867
-2.12253
-2.1708
-2.5839
-3.09876
-2.45415
-0.788419
0.327397
0.224707
-0.0935158
-2.51807
-2.61447
-2.80268
-3.04825
-3.33065
-3.11963
-2.14443
-1.06477
-0.18148
0.433347
0.753028
0.816754
0.74245
0.64237
0.554316
0.485165
0.432144
0.389621
0.352474
0.317222
0.282608
0.249675
0.219846
0.193168
0.169207
0.147955
0.128876
0.110332
0.0916791
0.0738308
0.0587721
0.0480702
0.0420283
0.0396629
0.0391679
0.0388528
0.0377263
0.0354384
0.0321046
0.0279465
0.0233299
0.0182106
0.0133077
0.00721392
0.00233488
0.337191
0.268899
0.190105
0.16765
0.181719
0.206214
0.231485
0.257425
0.286511
0.321792
0.366099
0.422166
0.492944
0.581959
0.694517
0.836537
1.01546
1.23414
1.46848
1.57901
1.59333
1.98886
2.79316
3.58784
4.13674
4.17821
-2.3683
-2.36014
-2.37022
-2.39568
-2.40013
-2.33194
-2.15609
-1.65985
-1.40378
-1.678
-1.77382
-2.20413
-2.69641
-2.08291
-0.531083
0.394462
0.00448237
-0.260931
-2.46501
-2.58979
-2.7106
-2.89179
-3.18738
-3.08859
-2.24057
-1.23333
-0.30073
0.385763
0.757438
0.84574
0.784077
0.690517
0.60314
0.530545
0.471841
0.422844
0.379179
0.337832
0.298552
0.262873
0.231599
0.203264
0.176981
0.153113
0.131562
0.110725
0.0904281
0.0716357
0.0561775
0.0454991
0.0397699
0.0378924
0.0379211
0.0380462
0.0372305
0.0351343
0.0319097
0.0278052
0.0232162
0.0180744
0.0131952
0.0069084
0.00248364
0.340488
0.272231
0.193607
0.171516
0.186029
0.211116
0.237179
0.264137
0.294519
0.331455
0.377869
0.436619
0.510799
0.604045
0.721742
0.869601
1.05442
1.27806
1.5208
1.66184
1.66479
1.97292
2.70894
3.49069
4.06615
4.12032
-2.29762
-2.28248
-2.26119
-2.29525
-2.16758
-1.90758
-1.72252
-1.28523
-0.882165
-1.22952
-1.37235
-1.73089
-2.2516
-1.90066
-0.600244
0.0733369
-0.555624
-0.757899
-2.57363
-2.63239
-2.64505
-2.70675
-2.82352
-2.69762
-2.09849
-1.24513
-0.377203
0.310127
0.713953
0.841472
0.818247
0.741629
0.657331
0.580281
0.514296
0.457516
0.40623
0.3578
0.312981
0.273642
0.239568
0.208725
0.180922
0.155441
0.133099
0.111218
0.0900358
0.0704809
0.0545903
0.0437493
0.0380672
0.0364137
0.0367301
0.0371258
0.0365253
0.03459
0.0314872
0.0274697
0.022947
0.0178065
0.0129905
0.0064577
0.00266317
0.342708
0.274425
0.195903
0.174114
0.188914
0.214382
0.240975
0.268617
0.299869
0.337911
0.385733
0.44628
0.522689
0.618689
0.739634
0.890948
1.07858
1.30296
1.54583
1.71183
1.7012
1.86642
2.43648
3.11025
3.66586
3.67989
-2.40582
-2.35644
-2.30533
-2.24234
-1.93547
-1.49093
-1.38427
-1.14532
-0.693362
-1.09875
-1.26644
-1.5692
-2.06554
-1.86637
-0.832934
-0.46978
-1.18038
-1.32662
-2.65045
-2.6837
-2.67837
-2.69068
-2.7015
-2.53019
-1.94451
-1.20086
-0.411628
0.25758
0.678437
0.844576
0.850482
0.783911
0.699399
0.616784
0.544165
0.480961
0.423418
0.36949
0.320659
0.278551
0.242288
0.210065
0.180572
0.156238
0.134194
0.112169
0.090628
0.0706019
0.0542292
0.0430089
0.0371652
0.0355284
0.0359381
0.0364467
0.03596
0.0341245
0.031109
0.0271611
0.0226965
0.0175634
0.0128078
0.0060759
0.0028081
0.344397
0.276087
0.197645
0.176095
0.191108
0.216866
0.243863
0.272029
0.303943
0.34283
0.391723
0.453629
0.531726
0.629795
0.753134
0.906906
1.09623
1.32016
1.55979
1.74181
1.73377
1.75982
2.11486
2.58545
3.01965
2.84816
-2.34589
-2.33163
-2.26383
-2.09501
-1.68198
-1.22293
-1.18659
-1.1174
-0.719706
-1.16625
-1.31737
-1.55845
-2.01024
-1.93719
-1.22569
-1.11835
-1.78416
-1.89455
-2.68501
-2.68576
-2.66285
-2.67064
-2.63768
-2.43455
-1.89119
-1.17142
-0.434826
0.217408
0.658237
0.855462
0.880679
0.819326
0.732012
0.643754
0.565462
0.496993
0.434636
0.376932
0.325598
0.281896
0.244445
0.21147
0.182086
0.157417
0.135263
0.113201
0.0913972
0.0709787
0.0541721
0.0426163
0.0365782
0.0349066
0.035351
0.0359143
0.0354933
0.0337262
0.0307763
0.0268844
0.0224694
0.0173459
0.0126424
0.00574927
0.00292157
0.345593
0.277274
0.198875
0.177491
0.192663
0.218633
0.245916
0.274454
0.30684
0.346326
0.395981
0.45885
0.53814
0.637659
0.762658
0.918078
1.10838
1.33149
1.56729
1.75505
1.76778
1.69993
1.83726
2.01894
2.28862
1.14794
-2.86393