/*--------------------------------*- C++ -*----------------------------------*\
| =========                 |                                                 |
| \\      /  F ield         | OpenFOAM: The Open Source CFD Toolbox           |
|  \\    /   O peration     | Version:  v2006                                 |
|   \\  /    A nd           | Website:  www.openfoam.com                      |
|    \\/     M anipulation  |                                                 |
\*---------------------------------------------------------------------------*/
FoamFile
{
    version     2.0;
    format      ascii;
    class       volScalarField;
    location    "0.58";
    object      k;
}
// * * * * * * * * * * * * * * * * * * * * * * * * * * * * * * * * * * * * * //

dimensions      [0 2 -2 0 0 0 0];


internalField   nonuniform List<scalar> 
374400
(
0.0970532
0.116255
0.108016
0.0958607
0.0938699
0.0968831
0.104704
0.113802
0.121855
0.128636
0.134645
0.140156
0.145372
0.15035
0.15528
0.160191
0.165126
0.170053
0.174731
0.178882
0.182248
0.1848
0.186807
0.188258
0.189426
0.190311
0.190901
0.191792
0.192992
0.194509
0.196693
0.19894
0.200579
0.201904
0.202909
0.203577
0.204587
0.205947
0.207654
0.210081
0.212527
0.214291
0.2157
0.216763
0.217465
0.218525
0.21994
0.221713
0.223479
0.224894
0.226649
0.228402
0.229789
0.230825
0.231507
0.232532
0.233893
0.235578
0.237918
0.240207
0.241831
0.243108
0.244063
0.24469
0.245632
0.246884
0.248431
0.250582
0.252692
0.254195
0.255378
0.256266
0.256848
0.257724
0.25889
0.260337
0.262348
0.265192
0.269135
0.274122
0.279704
0.28543
0.291128
0.296552
0.301273
0.305102
0.308183
0.310683
0.312741
0.31446
0.315915
0.317163
0.318242
0.319178
0.319987
0.320681
0.321273
0.321776
0.3222
0.322556
0.322849
0.323085
0.323272
0.323418
0.323532
0.323619
0.323688
0.323742
0.323787
0.323823
0.323858
0.323887
0.323919
0.323948
0.323968
0.324139
0.323879
0.0970543
0.116253
0.108012
0.0958537
0.0938585
0.0968693
0.104686
0.113781
0.121833
0.128615
0.134631
0.140151
0.145377
0.15037
0.155319
0.160253
0.165217
0.170176
0.174886
0.179069
0.182459
0.185029
0.18705
0.18851
0.189686
0.190576
0.19117
0.192066
0.193272
0.194797
0.196992
0.199248
0.200894
0.202223
0.203231
0.203901
0.204914
0.206277
0.207988
0.210419
0.212868
0.214634
0.216044
0.217106
0.217808
0.218868
0.220282
0.222053
0.223817
0.225229
0.22698
0.228729
0.230112
0.231146
0.231826
0.232847
0.234204
0.235881
0.238211
0.24049
0.242105
0.243375
0.244325
0.244948
0.245883
0.247127
0.248664
0.250801
0.252897
0.254389
0.255563
0.256445
0.257022
0.257891
0.259047
0.260482
0.262477
0.265298
0.269213
0.274164
0.279708
0.285402
0.291076
0.296487
0.301206
0.30504
0.308129
0.310643
0.312717
0.31445
0.315921
0.317186
0.318283
0.319233
0.320054
0.320759
0.321362
0.321873
0.322304
0.322663
0.322957
0.323193
0.323379
0.323523
0.323635
0.323721
0.323788
0.32384
0.323884
0.32392
0.323954
0.323984
0.324016
0.324046
0.324065
0.324237
0.323978
0.0970561
0.116246
0.108
0.0958336
0.0938285
0.0968357
0.104646
0.113735
0.121785
0.128572
0.134599
0.140136
0.145386
0.150411
0.155401
0.160388
0.165414
0.170444
0.175228
0.17948
0.182927
0.185538
0.18759
0.189071
0.190263
0.191165
0.191767
0.192674
0.193896
0.195438
0.197656
0.199933
0.201592
0.202932
0.203946
0.204621
0.205641
0.207011
0.208731
0.211171
0.213625
0.215393
0.216803
0.217866
0.218568
0.219627
0.221039
0.222807
0.224565
0.225973
0.227716
0.229456
0.23083
0.231856
0.232531
0.233544
0.23489
0.236554
0.23886
0.241111
0.242707
0.243961
0.244898
0.245513
0.246437
0.247664
0.249179
0.251282
0.253342
0.254809
0.255962
0.256828
0.257395
0.25825
0.259386
0.260795
0.262755
0.265523
0.269363
0.27422
0.279664
0.285264
0.290863
0.296223
0.300916
0.304747
0.307851
0.310387
0.312491
0.314262
0.31577
0.317073
0.318204
0.319186
0.320035
0.320765
0.321386
0.321912
0.322353
0.322717
0.323014
0.32325
0.323431
0.32357
0.323677
0.323757
0.323819
0.323865
0.323905
0.323938
0.323971
0.323998
0.32403
0.324059
0.324079
0.324251
0.323991
0.0970588
0.116237
0.107982
0.0957998
0.0937767
0.0967768
0.104574
0.113652
0.121696
0.128484
0.134526
0.140086
0.14537
0.15044
0.155492
0.16056
0.165686
0.170832
0.175738
0.180104
0.183644
0.186326
0.18843
0.189948
0.191168
0.192091
0.192706
0.193634
0.194881
0.196455
0.198713
0.201027
0.20271
0.204068
0.205095
0.205777
0.206808
0.208191
0.209925
0.212381
0.214848
0.216621
0.218034
0.219097
0.219798
0.220856
0.222265
0.224027
0.225777
0.227175
0.228905
0.230629
0.231989
0.233003
0.233669
0.234669
0.235995
0.237633
0.239902
0.242113
0.243677
0.244903
0.245819
0.246418
0.247318
0.248513
0.249987
0.252035
0.254038
0.255463
0.25658
0.257419
0.257967
0.258792
0.25989
0.261251
0.263144
0.265822
0.269542
0.274253
0.279541
0.284996
0.290483
0.295773
0.300435
0.304272
0.307405
0.309988
0.312145
0.313971
0.315536
0.316895
0.318081
0.319112
0.320004
0.32077
0.321422
0.321972
0.322427
0.322799
0.323094
0.323324
0.323495
0.323623
0.323717
0.323783
0.323834
0.323872
0.323905
0.323931
0.32396
0.323984
0.324015
0.324044
0.324064
0.324239
0.323981
0.0970633
0.116222
0.107953
0.095746
0.0936931
0.0966807
0.104456
0.113512
0.121539
0.128323
0.134377
0.13996
0.145284
0.150412
0.155545
0.160724
0.165992
0.171306
0.176396
0.180938
0.184625
0.187415
0.189602
0.191178
0.192443
0.193399
0.194036
0.194995
0.196283
0.197906
0.200229
0.202599
0.20432
0.205704
0.20675
0.207445
0.208493
0.209897
0.211655
0.214138
0.21662
0.218399
0.219814
0.220877
0.221578
0.222634
0.224039
0.225794
0.227532
0.228918
0.230628
0.232327
0.233664
0.23466
0.235315
0.236295
0.237595
0.239198
0.24141
0.243556
0.24507
0.246256
0.247141
0.247721
0.248591
0.249746
0.25117
0.253138
0.255054
0.256414
0.257482
0.258284
0.258808
0.259599
0.260651
0.261953
0.26376
0.26631
0.269846
0.274326
0.27937
0.284605
0.289922
0.295108
0.299729
0.303577
0.306754
0.309401
0.311635
0.313547
0.315198
0.316639
0.317899
0.318999
0.319952
0.320769
0.321461
0.32204
0.322514
0.322896
0.323193
0.323416
0.323579
0.323694
0.323773
0.323826
0.323863
0.323889
0.323912
0.323931
0.323954
0.323976
0.324005
0.324034
0.324053
0.324228
0.323972
0.0970704
0.116199
0.107909
0.0956642
0.0935647
0.0965323
0.104271
0.113289
0.121284
0.128047
0.134101
0.1397
0.145063
0.150254
0.155484
0.160802
0.16626
0.171813
0.177168
0.181974
0.185885
0.188846
0.191163
0.192829
0.194166
0.195173
0.195844
0.196853
0.198206
0.199908
0.202332
0.204795
0.206577
0.208006
0.209083
0.209797
0.210872
0.212309
0.214105
0.216631
0.219143
0.220937
0.222359
0.223423
0.224124
0.225178
0.226578
0.22832
0.23004
0.231408
0.23309
0.234757
0.236064
0.237035
0.237671
0.238621
0.239879
0.241426
0.243561
0.245622
0.24707
0.248198
0.249035
0.249582
0.2504
0.251484
0.252816
0.254665
0.25646
0.25773
0.258719
0.259457
0.259939
0.260661
0.261622
0.262813
0.264472
0.266823
0.2701
0.274266
0.278978
0.283928
0.289048
0.294139
0.298752
0.302651
0.305909
0.30865
0.31098
0.312988
0.314742
0.316285
0.317643
0.31883
0.319864
0.320752
0.321503
0.322123
0.322622
0.323012
0.323305
0.323515
0.323657
0.323749
0.323802
0.323831
0.323847
0.323857
0.323869
0.323882
0.323901
0.32392
0.32395
0.32398
0.324003
0.324182
0.32393
0.0970808
0.116166
0.107845
0.095545
0.0933761
0.0963119
0.103992
0.11295
0.120884
0.1276
0.133631
0.139224
0.144609
0.149855
0.155187
0.160672
0.166368
0.172245
0.177979
0.183173
0.187423
0.190647
0.193166
0.194975
0.196422
0.197511
0.198235
0.199323
0.200776
0.202599
0.20518
0.207784
0.209656
0.211151
0.212273
0.213016
0.214132
0.215619
0.217468
0.22005
0.222596
0.224402
0.225827
0.226891
0.22759
0.228639
0.230028
0.231751
0.233439
0.234778
0.236414
0.238026
0.239285
0.240216
0.240826
0.241737
0.24294
0.244414
0.246431
0.248357
0.249704
0.250751
0.251531
0.25204
0.252805
0.253817
0.255055
0.256749
0.258371
0.259516
0.260409
0.261081
0.26152
0.262184
0.263064
0.264151
0.265645
0.267739
0.270626
0.274296
0.278501
0.283009
0.287828
0.292783
0.297387
0.301362
0.304741
0.307624
0.310107
0.312266
0.314157
0.315822
0.317298
0.318603
0.31974
0.320713
0.321526
0.322191
0.322719
0.32312
0.32341
0.323608
0.323729
0.323792
0.323815
0.323817
0.32381
0.323803
0.323801
0.323807
0.32382
0.323839
0.32387
0.323902
0.323928
0.324113
0.323866
0.0970947
0.11612
0.107757
0.0953786
0.09311
0.0959994
0.103592
0.112453
0.120288
0.126912
0.132874
0.138416
0.143785
0.149052
0.154467
0.160122
0.166107
0.172401
0.178671
0.184447
0.189223
0.192865
0.195713
0.197754
0.199383
0.200604
0.201416
0.202631
0.204249
0.206268
0.209102
0.211928
0.213945
0.215545
0.216738
0.217525
0.218703
0.220264
0.222192
0.224861
0.227463
0.229292
0.230725
0.231787
0.232484
0.233525
0.234899
0.236593
0.238241
0.239539
0.241114
0.242657
0.243855
0.244736
0.245309
0.246161
0.247281
0.248649
0.250519
0.252296
0.253527
0.254468
0.255158
0.255604
0.256264
0.257133
0.258191
0.259651
0.261042
0.262009
0.262738
0.263274
0.263617
0.264125
0.264796
0.265626
0.266789
0.26846
0.270796
0.273797
0.277306
0.281312
0.285903
0.290875
0.295619
0.299789
0.303357
0.306397
0.308995
0.311248
0.313252
0.315056
0.316689
0.318155
0.319443
0.320544
0.321459
0.322197
0.322768
0.323185
0.323468
0.323636
0.323715
0.32373
0.323713
0.323673
0.323638
0.323612
0.3236
0.323602
0.323617
0.323642
0.32368
0.323721
0.32376
0.323958
0.323725
0.097114
0.116059
0.107637
0.0951577
0.0927494
0.0955722
0.10304
0.111758
0.119434
0.125904
0.131719
0.137129
0.1424
0.147612
0.15304
0.158826
0.165112
0.17194
0.178928
0.185563
0.191187
0.19549
0.198873
0.2013
0.20323
0.204671
0.205627
0.207055
0.208945
0.211291
0.214537
0.217718
0.219957
0.22171
0.223001
0.22385
0.22511
0.226761
0.228787
0.231551
0.234195
0.236027
0.237443
0.238484
0.239163
0.240172
0.241494
0.243106
0.244652
0.245859
0.247304
0.248701
0.249772
0.250554
0.251061
0.251816
0.252802
0.254
0.255604
0.257086
0.258108
0.258897
0.259488
0.259875
0.260462
0.261238
0.262184
0.263444
0.264588
0.265383
0.265994
0.266455
0.266755
0.267212
0.267803
0.268501
0.269392
0.270535
0.271977
0.273795
0.27611
0.27918
0.283292
0.288162
0.293074
0.297537
0.301415
0.304699
0.307454
0.309826
0.31199
0.314011
0.315875
0.317549
0.319007
0.320241
0.321253
0.32206
0.322676
0.323112
0.323389
0.323531
0.323567
0.32354
0.323466
0.323389
0.323326
0.323284
0.32327
0.323276
0.323303
0.32334
0.3234
0.323457
0.323514
0.323731
0.323525
0.097137
0.115984
0.107495
0.0948809
0.0922974
0.0950362
0.102335
0.110864
0.118311
0.12454
0.130104
0.135263
0.140286
0.145295
0.15058
0.156354
0.162866
0.170238
0.178117
0.185918
0.192693
0.198116
0.202366
0.205411
0.207831
0.209632
0.210824
0.2126
0.214936
0.21782
0.221755
0.225542
0.228177
0.230201
0.23166
0.23261
0.234005
0.235795
0.237958
0.24079
0.2434
0.245189
0.246565
0.247575
0.248234
0.249213
0.250497
0.252058
0.253541
0.254689
0.256032
0.257305
0.258255
0.258934
0.259366
0.259997
0.260819
0.26181
0.263175
0.264461
0.265345
0.266013
0.266493
0.266796
0.267235
0.267798
0.268454
0.269338
0.270108
0.270577
0.270842
0.270993
0.271064
0.271138
0.271234
0.271363
0.271541
0.271827
0.272
0.272117
0.272749
0.274958
0.279246
0.284682
0.290293
0.295321
0.299346
0.302583
0.305301
0.307706
0.310015
0.312273
0.314411
0.316346
0.318035
0.319463
0.320633
0.321559
0.322258
0.322737
0.323016
0.323126
0.323119
0.323027
0.3229
0.322788
0.322707
0.322672
0.322678
0.322713
0.322786
0.322862
0.322968
0.323058
0.323157
0.323416
0.323268
0.097162
0.115905
0.107329
0.0945776
0.0917881
0.0944266
0.101528
0.10983
0.116968
0.122903
0.128079
0.132867
0.137427
0.142023
0.146896
0.152335
0.158769
0.166393
0.175039
0.184168
0.192607
0.199387
0.204958
0.209043
0.212332
0.214805
0.216443
0.218899
0.222108
0.226039
0.231185
0.235739
0.238679
0.240798
0.242267
0.243204
0.244528
0.246175
0.248096
0.250544
0.252727
0.254158
0.255228
0.256005
0.256511
0.257264
0.258263
0.2595
0.260675
0.261586
0.262628
0.263564
0.26421
0.264646
0.264918
0.265318
0.265798
0.266308
0.266884
0.267389
0.267793
0.268186
0.268563
0.268827
0.269301
0.270002
0.270972
0.272453
0.273934
0.275045
0.275938
0.276572
0.276987
0.277596
0.278215
0.278594
0.278642
0.277975
0.275959
0.2729
0.270399
0.270716
0.273898
0.279996
0.286494
0.292153
0.296341
0.299516
0.302226
0.304715
0.307189
0.309714
0.312172
0.314414
0.31636
0.318004
0.319369
0.320464
0.321303
0.321889
0.32224
0.322374
0.322357
0.322231
0.322079
0.321963
0.321908
0.321913
0.321981
0.322086
0.322239
0.322375
0.322556
0.322703
0.322864
0.323189
0.323125
0.097189
0.115822
0.107151
0.0942722
0.0912386
0.0937825
0.100657
0.108718
0.115487
0.121079
0.125729
0.13003
0.133921
0.137787
0.141876
0.146461
0.152176
0.159368
0.16832
0.178615
0.189091
0.198149
0.206087
0.211803
0.216403
0.219736
0.221873
0.224945
0.22858
0.232652
0.236505
0.238654
0.239532
0.23985
0.239982
0.240031
0.240111
0.24022
0.240392
0.240948
0.241968
0.242976
0.243887
0.244581
0.24505
0.245738
0.24663
0.247558
0.248284
0.248437
0.248225
0.247619
0.24657
0.245621
0.244931
0.243823
0.242479
0.241269
0.240782
0.241056
0.241954
0.243411
0.244519
0.245269
0.246409
0.247881
0.249509
0.251852
0.254544
0.25655
0.258092
0.259214
0.259913
0.260911
0.262336
0.264275
0.26682
0.268563
0.268129
0.264475
0.260864
0.261587
0.266698
0.275148
0.283139
0.289133
0.292981
0.295457
0.297808
0.300216
0.302727
0.305505
0.308359
0.311046
0.313409
0.315444
0.317173
0.318594
0.319699
0.32049
0.321006
0.321246
0.321281
0.321192
0.32106
0.320989
0.321002
0.3211
0.321295
0.321511
0.32178
0.322013
0.322296
0.322516
0.322773
0.323155
0.323198
0.0972131
0.115744
0.106976
0.0939812
0.0906753
0.0931486
0.0997595
0.107612
0.11397
0.119146
0.123254
0.126888
0.129981
0.13278
0.135651
0.138705
0.142709
0.148225
0.156155
0.16687
0.179932
0.191054
0.200908
0.208355
0.213179
0.216175
0.217961
0.220356
0.222863
0.226324
0.226022
0.224035
0.221044
0.217808
0.215302
0.213556
0.211088
0.207915
0.204902
0.201813
0.200374
0.200764
0.201716
0.203073
0.204227
0.206367
0.209897
0.215011
0.219972
0.223605
0.226653
0.227876
0.227647
0.227099
0.226347
0.22485
0.222485
0.218977
0.214203
0.211676
0.211447
0.212329
0.214424
0.216827
0.220958
0.227188
0.237659
0.254466
0.269242
0.278408
0.284273
0.287544
0.289478
0.291477
0.292747
0.292802
0.291717
0.288032
0.275978
0.258213
0.245651
0.244925
0.252399
0.265516
0.276571
0.283472
0.286706
0.288009
0.289299
0.291598
0.294506
0.297905
0.301743
0.305513
0.30881
0.311574
0.313875
0.315771
0.31728
0.318435
0.319298
0.319824
0.32005
0.320053
0.319999
0.319989
0.320093
0.320322
0.320657
0.321006
0.321409
0.321753
0.322149
0.322449
0.322807
0.32323
0.323397
0.097235
0.115677
0.106838
0.0937035
0.0901866
0.0925761
0.0989543
0.106623
0.112554
0.117379
0.120948
0.12386
0.126136
0.127765
0.129024
0.130089
0.131328
0.133728
0.138859
0.14994
0.163543
0.179511
0.196492
0.214405
0.2312
0.247444
0.261737
0.286769
0.327434
0.369168
0.387765
0.383131
0.373216
0.359213
0.34836
0.340938
0.330525
0.317275
0.303412
0.28373
0.268262
0.259692
0.25652
0.257011
0.258104
0.261474
0.269245
0.280231
0.289111
0.294484
0.29679
0.29567
0.293337
0.290841
0.289082
0.286049
0.282193
0.276012
0.266383
0.265112
0.267701
0.274785
0.281323
0.284972
0.286198
0.283947
0.266425
0.244812
0.24245
0.245109
0.252601
0.259762
0.264258
0.270361
0.277117
0.283918
0.289779
0.290549
0.280849
0.253329
0.232664
0.229085
0.237873
0.253712
0.265899
0.272814
0.275359
0.27557
0.275688
0.277131
0.280388
0.284449
0.289276
0.29442
0.298979
0.302779
0.30602
0.308841
0.311312
0.313468
0.315324
0.316718
0.317596
0.318026
0.318262
0.318466
0.31879
0.3192
0.319723
0.320235
0.320789
0.321252
0.321764
0.322139
0.322591
0.323048
0.323321
0.0972553
0.115621
0.106767
0.0934456
0.0898344
0.0921161
0.0983618
0.10579
0.111496
0.115912
0.119126
0.121443
0.122866
0.123651
0.123268
0.122359
0.120652
0.118743
0.120578
0.129834
0.151074
0.194372
0.287157
0.374099
0.441508
0.488726
0.516821
0.560361
0.595304
0.615743
0.601095
0.566436
0.530784
0.499908
0.477102
0.462064
0.440912
0.413553
0.381802
0.334144
0.291521
0.269908
0.261385
0.262172
0.264411
0.272409
0.291175
0.328474
0.367184
0.396414
0.415781
0.411563
0.399315
0.381057
0.36844
0.347996
0.32077
0.288339
0.230655
0.145136
0.101281
0.0990883
0.103773
0.108838
0.109354
0.104191
0.0918786
0.0876653
0.0906929
0.0975244
0.105039
0.111132
0.115301
0.122212
0.13208
0.146518
0.167941
0.195227
0.211156
0.205485
0.200175
0.209521
0.231342
0.250688
0.261851
0.265135
0.264266
0.260997
0.257668
0.256354
0.257372
0.260896
0.265658
0.271322
0.277608
0.283988
0.290143
0.295895
0.30118
0.305921
0.309949
0.312949
0.314891
0.31596
0.316557
0.316979
0.31747
0.318028
0.318694
0.319333
0.320001
0.320546
0.321134
0.321555
0.322066
0.322533
0.322867
0.0972664
0.115595
0.106717
0.0932716
0.0895763
0.0917925
0.0979601
0.105186
0.110767
0.11488
0.117782
0.119776
0.120528
0.12044
0.119311
0.116604
0.11253
0.106266
0.104555
0.114987
0.168534
0.320932
0.452861
0.510339
0.545332
0.566804
0.582005
0.607646
0.607424
0.591398
0.547795
0.506997
0.475165
0.44442
0.417719
0.398496
0.367256
0.324536
0.270822
0.204667
0.157304
0.161435
0.174993
0.192008
0.211267
0.234859
0.284872
0.333562
0.387864
0.432425
0.430564
0.407335
0.360999
0.320903
0.295803
0.261441
0.205203
0.143588
0.106104
0.0899886
0.104826
0.140351
0.150258
0.144947
0.134597
0.1292
0.133006
0.142711
0.152026
0.156936
0.158323
0.158211
0.157476
0.154586
0.149562
0.141082
0.126545
0.123114
0.137035
0.156618
0.177835
0.203658
0.229677
0.248528
0.257275
0.256915
0.25326
0.248458
0.244793
0.242574
0.24131
0.240847
0.241784
0.245573
0.252666
0.262452
0.273571
0.28406
0.293407
0.301281
0.307368
0.311519
0.313947
0.315086
0.315589
0.315916
0.316376
0.316962
0.317694
0.318401
0.319134
0.319721
0.320347
0.320777
0.321318
0.321778
0.322142
0.0972675
0.115595
0.106673
0.0931626
0.0893919
0.0915705
0.0976997
0.10477
0.110253
0.114211
0.116808
0.118649
0.118869
0.118347
0.116506
0.112601
0.106698
0.0977625
0.0918968
0.111231
0.232591
0.388863
0.469154
0.435612
0.389831
0.395925
0.420747
0.425297
0.41489
0.38596
0.369601
0.344337
0.309432
0.274768
0.248734
0.231739
0.206545
0.160475
0.118565
0.0928007
0.0982505
0.120205
0.142624
0.165708
0.186181
0.22178
0.263719
0.338303
0.38853
0.391739
0.357456
0.269504
0.1775
0.132624
0.116172
0.109895
0.122182
0.135601
0.146391
0.24928
0.312248
0.323795
0.297128
0.269579
0.230921
0.205011
0.199747
0.206767
0.2204
0.231412
0.240069
0.246356
0.250355
0.255162
0.25855
0.258143
0.247748
0.19263
0.15457
0.157013
0.173984
0.201532
0.225121
0.24143
0.247081
0.244688
0.243491
0.243772
0.244083
0.24344
0.241364
0.238517
0.23711
0.239057
0.246207
0.257422
0.270464
0.282739
0.29341
0.302034
0.308292
0.312156
0.314059
0.31465
0.314764
0.314894
0.315285
0.315901
0.316696
0.317457
0.318236
0.318843
0.319491
0.319924
0.320488
0.320935
0.321327
0.0972698
0.115595
0.106636
0.0930785
0.0892674
0.0914199
0.0975207
0.104493
0.109867
0.113766
0.116121
0.117828
0.117739
0.116893
0.114529
0.109778
0.102656
0.0917387
0.083299
0.118069
0.269772
0.39068
0.358023
0.314821
0.313302
0.340423
0.376157
0.36778
0.336143
0.309844
0.267615
0.189892
0.148368
0.126062
0.11006
0.097472
0.0812939
0.0607355
0.0559166
0.0949736
0.102433
0.0975705
0.146095
0.222638
0.26697
0.276917
0.311012
0.321122
0.30012
0.237082
0.140908
0.0903248
0.0843786
0.0848963
0.0900858
0.105347
0.1316
0.168906
0.283916
0.374344
0.375234
0.357715
0.308184
0.27411
0.229535
0.205801
0.202962
0.213501
0.230902
0.243557
0.25455
0.263914
0.270772
0.280296
0.289051
0.303127
0.309128
0.279775
0.196338
0.167278
0.175864
0.198252
0.219143
0.233798
0.238079
0.238294
0.24265
0.248899
0.25287
0.254181
0.252539
0.248618
0.245811
0.247037
0.253957
0.265316
0.277958
0.28904
0.298199
0.305398
0.310344
0.313037
0.313988
0.313974
0.313765
0.313761
0.314148
0.31485
0.315719
0.316533
0.317348
0.317972
0.318638
0.319073
0.319661
0.320096
0.320522
0.0972752
0.115592
0.106603
0.0930021
0.089173
0.0913055
0.0973753
0.104283
0.109554
0.113409
0.1156
0.117127
0.116902
0.115757
0.112948
0.107577
0.0995264
0.0870453
0.0771211
0.124857
0.279633
0.359375
0.31488
0.272289
0.252737
0.320203
0.33966
0.272249
0.206035
0.135897
0.0725683
0.0524112
0.0564128
0.0511431
0.0469009
0.0464135
0.048894
0.0400405
0.0712291
0.103555
0.0973627
0.232464
0.279942
0.335988
0.326896
0.260161
0.230787
0.146734
0.0916716
0.0991068
0.0905842
0.0842009
0.0811716
0.0795442
0.0830581
0.109089
0.161026
0.274743
0.381735
0.395833
0.360781
0.337373
0.263114
0.22708
0.165967
0.153809
0.152388
0.154592
0.164058
0.180087
0.19991
0.215539
0.232427
0.256172
0.279264
0.303211
0.335393
0.325195
0.246499
0.185852
0.180432
0.193836
0.213862
0.228574
0.234242
0.238572
0.248026
0.256889
0.263126
0.265739
0.265004
0.261848
0.25927
0.26044
0.266963
0.277272
0.288386
0.297199
0.303872
0.308832
0.311961
0.313288
0.313391
0.312934
0.312532
0.312529
0.312994
0.313802
0.314756
0.315618
0.316464
0.317104
0.317787
0.318228
0.318843
0.319268
0.319732
0.0972828
0.11557
0.106562
0.0929415
0.0891002
0.0912154
0.0972553
0.104126
0.109321
0.113136
0.115223
0.1166
0.116276
0.114922
0.111779
0.105983
0.0972765
0.0836741
0.0731123
0.129888
0.281202
0.337871
0.262925
0.225276
0.214541
0.303222
0.305128
0.175151
0.0965944
0.039352
0.0240272
0.025781
0.0216573
0.0179693
0.0217011
0.0366035
0.0450238
0.0441327
0.0904942
0.122538
0.196357
0.307291
0.295061
0.33586
0.285603
0.11239
0.0590638
0.0856851
0.0901397
0.0863454
0.0728683
0.0633677
0.0614262
0.0701577
0.0722358
0.111616
0.211175
0.353725
0.431115
0.366524
0.336135
0.305705
0.213336
0.192336
0.0942335
0.0721791
0.0668231
0.0660878
0.0712049
0.0804952
0.0990304
0.117681
0.148448
0.210243
0.254717
0.297102
0.346311
0.348002
0.278029
0.202297
0.184113
0.1917
0.210379
0.225866
0.233211
0.240775
0.251922
0.261993
0.269352
0.27304
0.273256
0.271268
0.269346
0.270578
0.276635
0.285935
0.295808
0.303091
0.307916
0.310942
0.312452
0.312711
0.312261
0.311527
0.311171
0.311277
0.311917
0.312838
0.313871
0.314777
0.315649
0.316302
0.317003
0.317452
0.318094
0.318512
0.319016
0.0972841
0.115565
0.106553
0.0929182
0.0890539
0.0911548
0.0971715
0.104022
0.109171
0.112955
0.114976
0.116253
0.115861
0.114373
0.111016
0.104955
0.0958316
0.0815387
0.0708688
0.132719
0.27654
0.32227
0.246095
0.209758
0.194681
0.244943
0.0425751
0.0454564
0.0567167
0.114593
0.140453
0.25723
0.319551
0.289357
0.315083
0.0695985
0.0993543
0.236412
0.382797
0.443948
0.354008
0.319089
0.2887
0.167018
0.106236
0.145935
0.221682
0.284936
0.353113
0.362441
0.295365
0.213172
0.186295
0.19051
0.208013
0.224035
0.232454
0.241348
0.253305
0.264163
0.27247
0.277261
0.278312
0.27698
0.275284
0.276375
0.281862
0.290458
0.299688
0.306235
0.309912
0.311749
0.312306
0.311986
0.311128
0.310369
0.310099
0.310326
0.311123
0.31213
0.313221
0.314158
0.315048
0.315711
0.316425
0.316882
0.317544
0.317964
0.318488
0.0972825
0.115568
0.106558
0.0928983
0.0889844
0.0910629
0.0970445
0.103869
0.108952
0.112685
0.114613
0.11574
0.115248
0.113565
0.109895
0.103452
0.093732
0.0784587
0.0677903
0.134729
0.269354
0.299155
0.207208
0.177249
0.168639
0.196154
0.0427058
0.0463873
0.0720116
0.123562
0.139171
0.286018
0.323988
0.285704
0.286473
0.0841963
0.107951
0.279712
0.411547
0.447672
0.333266
0.296665
0.26695
0.132326
0.0432019
0.0608254
0.116459
0.239121
0.344794
0.380944
0.317589
0.226435
0.188721
0.188919
0.204939
0.220332
0.230033
0.241372
0.254462
0.26665
0.27633
0.282813
0.285418
0.285008
0.283389
0.283872
0.288161
0.29538
0.303161
0.308688
0.311335
0.311887
0.311418
0.310168
0.309002
0.308308
0.308244
0.308747
0.309813
0.310969
0.312153
0.313137
0.314057
0.314737
0.315475
0.31595
0.31664
0.317075
0.317619
0.0972847
0.115548
0.106535
0.092859
0.0888854
0.090937
0.096874
0.103664
0.108668
0.112323
0.114139
0.115073
0.114448
0.112515
0.108444
0.101536
0.0911004
0.0747457
0.0639249
0.135453
0.258342
0.277647
0.182208
0.15059
0.139101
0.14051
0.0489425
0.0518632
0.0599673
0.107436
0.150458
0.294067
0.313487
0.271436
0.271715
0.10726
0.157856
0.346468
0.438738
0.437619
0.311546
0.273977
0.235833
0.114628
0.038452
0.0418967
0.0565873
0.109294
0.282999
0.368418
0.317475
0.227329
0.188087
0.186477
0.200363
0.2126
0.224234
0.239254
0.255484
0.269326
0.280225
0.288539
0.293296
0.2942
0.292878
0.292214
0.293879
0.298696
0.304794
0.308584
0.30961
0.309101
0.307556
0.305927
0.304918
0.304676
0.305118
0.306283
0.307735
0.309132
0.310452
0.311503
0.312469
0.313184
0.313967
0.314476
0.315218
0.315676
0.316265
0.0972891
0.115526
0.106502
0.0928064
0.0887688
0.0907913
0.0966751
0.103412
0.10833
0.111878
0.11357
0.11427
0.113485
0.111257
0.106727
0.0993176
0.088161
0.0708006
0.0591519
0.130267
0.241347
0.253338
0.156616
0.124805
0.109096
0.105551
0.050456
0.0591211
0.0585266
0.053607
0.167423
0.272605
0.287414
0.254338
0.267947
0.112949
0.205951
0.403483
0.472004
0.396298
0.283477
0.247516
0.212933
0.117415
0.0490031
0.0547951
0.0575367
0.0652231
0.111126
0.268113
0.284363
0.20982
0.177404
0.17908
0.187473
0.196865
0.213187
0.237389
0.258012
0.273864
0.285668
0.294799
0.300701
0.3018
0.300071
0.297798
0.297395
0.299527
0.302184
0.303095
0.302746
0.30141
0.299779
0.298722
0.298536
0.299146
0.300741
0.302709
0.304695
0.306419
0.307922
0.309072
0.310115
0.310895
0.311757
0.312328
0.313154
0.313644
0.314314
0.0972958
0.115499
0.106454
0.0927261
0.0886187
0.090606
0.0964231
0.103073
0.107892
0.111275
0.112819
0.113207
0.112209
0.109594
0.104518
0.096512
0.0846655
0.0664177
0.052867
0.118062
0.225355
0.238087
0.143324
0.112135
0.0929752
0.0835891
0.0328841
0.0493
0.0492812
0.102081
0.232794
0.218658
0.237242
0.215965
0.245058
0.10573
0.216096
0.416099
0.472877
0.351167
0.251107
0.221771
0.213052
0.147366
0.0451865
0.0502
0.0425546
0.0937225
0.116434
0.126347
0.159355
0.145718
0.133957
0.140855
0.144823
0.162424
0.197812
0.236073
0.265822
0.283882
0.295097
0.302832
0.305906
0.30594
0.303321
0.299526
0.297231
0.295264
0.292204
0.289197
0.287026
0.285924
0.285847
0.286684
0.288548
0.291063
0.29397
0.296807
0.299444
0.301611
0.303421
0.304788
0.30602
0.306959
0.307984
0.308678
0.309664
0.310207
0.311047
0.0973041
0.11548
0.106417
0.0926324
0.088483
0.0904399
0.0962034
0.102755
0.107493
0.110708
0.112124
0.112221
0.11103
0.108051
0.102551
0.0940669
0.081894
0.0636521
0.0470868
0.0965154
0.211648
0.236465
0.150544
0.116859
0.0981007
0.0900393
0.0228763
0.0315507
0.0865909
0.265261
0.312122
0.166975
0.174812
0.175337
0.206475
0.0902296
0.184017
0.399767
0.462305
0.347428
0.26025
0.235545
0.232627
0.187979
0.0462628
0.045779
0.0489428
0.12155
0.172733
0.186001
0.14289
0.123836
0.111931
0.099483
0.106642
0.137966
0.192336
0.244833
0.280979
0.300288
0.307494
0.307991
0.306153
0.300728
0.294259
0.288963
0.28502
0.280027
0.274091
0.27004
0.268565
0.269263
0.271901
0.275424
0.279242
0.282931
0.28658
0.28995
0.293011
0.295553
0.297719
0.2994
0.300917
0.302093
0.303339
0.304197
0.305395
0.305993
0.307076
0.0973122
0.115469
0.106392
0.0925575
0.0883964
0.0903349
0.0960621
0.102545
0.107218
0.110331
0.111648
0.111578
0.11024
0.107025
0.101253
0.0925344
0.0802481
0.0625826
0.0444514
0.0750027
0.197914
0.238982
0.16762
0.129785
0.11449
0.111638
0.0259438
0.0693018
0.198677
0.332079
0.332741
0.151054
0.115825
0.144653
0.170603
0.09514
0.170816
0.38791
0.454825
0.350792
0.279197
0.265252
0.262505
0.222657
0.0513073
0.0502102
0.0377276
0.0902571
0.140129
0.171619
0.167376
0.118253
0.100008
0.0791582
0.0888557
0.132507
0.193832
0.251718
0.292135
0.310583
0.312817
0.306009
0.292493
0.280116
0.270933
0.265882
0.263155
0.260174
0.257063
0.255918
0.256717
0.259706
0.263885
0.268445
0.272858
0.276926
0.280831
0.284428
0.287744
0.29056
0.293016
0.294964
0.296722
0.298095
0.299524
0.300516
0.301892
0.302531
0.303834
0.0973192
0.115462
0.106366
0.0924968
0.0883287
0.0902589
0.0959542
0.102391
0.107001
0.110053
0.111262
0.111119
0.109637
0.106251
0.100247
0.0914364
0.0790594
0.0620669
0.0437381
0.0573996
0.177749
0.241318
0.194197
0.157117
0.146103
0.144772
0.0829924
0.175168
0.254622
0.346088
0.308275
0.151386
0.0798452
0.127493
0.151139
0.10997
0.172955
0.377223
0.448592
0.359401
0.297991
0.287498
0.305954
0.272473
0.0573002
0.0573587
0.0462602
0.0973001
0.130284
0.15533
0.159938
0.110968
0.0868341
0.0676716
0.0829063
0.130177
0.192522
0.251925
0.293963
0.311937
0.310303
0.293939
0.272734
0.256034
0.246051
0.242545
0.242264
0.243034
0.244185
0.246279
0.2496
0.253836
0.258537
0.263181
0.26766
0.271836
0.275862
0.279623
0.283157
0.286209
0.288912
0.291086
0.293051
0.294595
0.296182
0.297295
0.298827
0.299515
0.301001
0.0973256
0.115442
0.106326
0.0924516
0.0882733
0.0901994
0.0958672
0.102281
0.10684
0.109855
0.110981
0.110787
0.109207
0.105692
0.0995345
0.0906528
0.078252
0.0617992
0.0437644
0.0468575
0.157313
0.241023
0.226114
0.179525
0.165297
0.206414
0.224816
0.248862
0.269562
0.33161
0.275737
0.149082
0.0584234
0.117396
0.14199
0.132629
0.176986
0.36957
0.444768
0.373598
0.316593
0.307258
0.330818
0.300338
0.0629424
0.0601724
0.058675
0.104226
0.131387
0.15056
0.153697
0.107821
0.0808773
0.06329
0.0810372
0.127836
0.18812
0.24584
0.287182
0.302472
0.298064
0.277567
0.254135
0.236891
0.228174
0.22661
0.228743
0.232969
0.237145
0.241334
0.245738
0.250288
0.254851
0.25926
0.263602
0.267775
0.271896
0.275791
0.279499
0.282734
0.285621
0.287962
0.290083
0.291757
0.29347
0.294679
0.296341
0.297069
0.298712
0.097326
0.115439
0.106317
0.092439
0.0882386
0.0901586
0.0958064
0.102209
0.106738
0.109728
0.110798
0.110571
0.108929
0.105328
0.0990912
0.0901466
0.0777596
0.061612
0.0442739
0.0403265
0.141495
0.239113
0.24273
0.204785
0.190671
0.232116
0.276755
0.150821
0.118295
0.111792
0.108641
0.112841
0.129062
0.171785
0.208838
0.265412
0.25715
0.266304
0.312391
0.25904
0.149285
0.054515
0.0889613
0.125304
0.10976
0.107518
0.116349
0.108623
0.0614882
0.0142866
0.00723158
0.00890244
0.017432
0.0572016
0.140971
0.180281
0.363999
0.441214
0.384007
0.328138
0.318694
0.360047
0.340367
0.207756
0.0562331
0.047425
0.0642822
0.0713144
0.0463809
0.0373277
0.0333701
0.037645
0.0659986
0.059557
0.0653855
0.106747
0.134263
0.150439
0.1505
0.107092
0.0792711
0.062309
0.0800943
0.124335
0.181062
0.235576
0.274392
0.288006
0.282905
0.26246
0.240605
0.225363
0.218682
0.218436
0.222164
0.228037
0.233647
0.238772
0.243569
0.248097