/*--------------------------------*- C++ -*----------------------------------*\
| =========                 |                                                 |
| \\      /  F ield         | OpenFOAM: The Open Source CFD Toolbox           |
|  \\    /   O peration     | Version:  v2006                                 |
|   \\  /    A nd           | Website:  www.openfoam.com                      |
|    \\/     M anipulation  |                                                 |
\*---------------------------------------------------------------------------*/
FoamFile
{
    version     2.0;
    format      ascii;
    class       volScalarField;
    location    "0.58";
    object      omega;
}
// * * * * * * * * * * * * * * * * * * * * * * * * * * * * * * * * * * * * * //

dimensions      [0 0 -1 0 0 0 0];


internalField   nonuniform List<scalar> 
374400
(
281.848
307.675
296.858
280.149
277.334
281.619
292.437
304.518
314.82
323.24
330.527
337.075
343.159
348.87
354.438
359.899
365.306
370.624
375.604
379.97
383.475
386.112
388.173
389.657
390.848
391.748
392.347
393.249
394.462
395.99
398.18
400.42
402.046
403.355
404.345
405.002
405.994
407.324
408.988
411.342
413.701
415.394
416.741
417.754
418.422
419.428
420.767
422.439
424.099
425.423
427.059
428.688
429.972
430.928
431.557
432.499
433.749
435.289
437.419
439.493
440.958
442.108
442.965
443.527
444.369
445.487
446.864
448.772
450.635
451.958
452.996
453.774
454.283
455.048
456.064
457.321
459.064
461.516
464.895
469.129
473.82
478.579
483.261
487.671
491.473
494.532
496.98
498.957
500.58
501.932
503.074
504.051
504.895
505.627
506.258
506.798
507.259
507.651
507.98
508.256
508.484
508.666
508.812
508.925
509.012
509.08
509.134
509.175
509.21
509.238
509.265
509.287
509.313
509.335
509.35
509.484
509.281
281.849
307.673
296.853
280.139
277.317
281.599
292.412
304.491
314.793
323.215
330.51
337.068
343.165
348.893
354.481
359.968
365.404
370.755
375.768
380.165
383.693
386.347
388.422
389.914
391.112
392.016
392.618
393.526
394.744
396.279
398.478
400.725
402.356
403.669
404.661
405.32
406.313
407.645
409.312
411.668
414.028
415.721
417.067
418.08
418.747
419.752
421.089
422.759
424.415
425.735
427.367
428.991
430.27
431.224
431.85
432.788
434.032
435.565
437.685
439.748
441.205
442.347
443.199
443.757
444.594
445.704
447.071
448.965
450.815
452.128
453.158
453.93
454.434
455.193
456.2
457.447
459.175
461.607
464.961
469.165
473.824
478.556
483.219
487.619
491.419
494.483
496.937
498.926
500.561
501.924
503.079
504.07
504.928
505.67
506.311
506.86
507.329
507.726
508.061
508.339
508.568
508.75
508.894
509.006
509.093
509.159
509.211
509.251
509.286
509.314
509.34
509.363
509.388
509.411
509.426
509.561
509.358
281.852
307.664
296.837
280.11
277.275
281.552
292.358
304.431
314.733
323.162
330.472
337.051
343.176
348.939
354.573
360.116
365.618
371.042
376.129
380.593
384.176
386.869
388.972
390.484
391.697
392.612
393.221
394.139
395.37
396.92
399.138
401.402
403.044
404.364
405.362
406.024
407.021
408.359
410.031
412.392
414.752
416.445
417.789
418.8
419.465
420.468
421.802
423.465
425.113
426.427
428.05
429.662
430.931
431.876
432.497
433.427
434.659
436.177
438.272
440.308
441.746
442.872
443.712
444.262
445.087
446.181
447.527
449.39
451.207
452.496
453.507
454.264
454.76
455.505
456.494
457.718
459.415
461.8
465.088
469.212
473.787
478.441
483.044
487.404
491.185
494.248
496.715
498.722
500.382
501.776
502.96
503.981
504.866
505.633
506.296
506.864
507.348
507.757
508.099
508.382
508.612
508.795
508.935
509.043
509.125
509.187
509.235
509.271
509.302
509.327
509.353
509.374
509.399
509.422
509.437
509.571
509.369
281.855
307.652
296.813
280.063
277.201
281.469
292.261
304.323
314.62
323.054
330.384
336.992
343.157
348.972
354.676
360.306
365.913
371.456
376.666
381.243
384.916
387.676
389.828
391.373
392.612
393.546
394.167
395.103
396.357
397.934
400.187
402.482
404.143
405.477
406.484
407.151
408.157
409.503
411.184
413.554
415.92
417.612
418.955
419.963
420.627
421.625
422.952
424.606
426.241
427.544
429.149
430.743
431.996
432.928
433.539
434.454
435.665
437.156
439.214
441.209
442.615
443.714
444.533
445.069
445.871
446.934
448.242
450.053
451.817
453.067
454.046
454.779
455.257
455.976
456.931
458.112
459.75
462.056
465.24
469.239
473.682
478.218
482.731
487.038
490.797
493.867
496.359
498.405
500.108
501.546
502.776
503.841
504.77
505.576
506.272
506.869
507.376
507.804
508.158
508.445
508.675
508.852
508.985
509.083
509.156
509.207
509.246
509.275
509.301
509.322
509.344
509.363
509.387
509.41
509.425
509.561
509.361
281.862
307.632
296.775
279.987
277.081
281.334
292.101
304.141
314.423
322.857
330.206
336.844
343.058
348.941
354.735
360.488
366.244
371.963
377.359
382.111
385.926
388.789
391.019
392.618
393.898
394.862
395.503
396.467
397.758
399.379
401.687
404.028
405.719
407.075
408.096
408.773
409.791
411.152
412.85
415.235
417.606
419.297
420.637
421.641
422.301
423.294
424.613
426.253
427.871
429.157
430.738
432.303
433.531
434.443
435.041
435.936
437.119
438.573
440.573
442.504
443.861
444.921
445.71
446.227
447.001
448.026
449.286
451.023
452.707
453.899
454.832
455.531
455.988
456.677
457.59
458.718
460.279
462.473
465.497
469.299
473.538
477.893
482.27
486.495
490.226
493.309
495.839
497.938
499.705
501.212
502.51
503.641
504.628
505.488
506.232
506.868
507.407
507.857
508.225
508.522
508.751
508.924
509.05
509.138
509.199
509.24
509.269
509.289
509.307
509.321
509.34
509.357
509.379
509.402
509.416
509.553
509.354
281.872
307.603
296.716
279.871
276.897
281.125
291.849
303.85
314.101
322.518
329.875
336.539
342.803
348.761
354.667
360.574
366.535
372.503
378.17
383.184
387.219
390.246
392.599
394.283
395.629
396.64
397.313
398.322
399.671
401.362
403.758
406.179
407.92
409.311
410.356
411.048
412.087
413.473
415.196
417.61
419.996
421.691
423.03
424.029
424.686
425.672
426.977
428.597
430.189
431.452
432.999
434.527
435.721
436.605
437.183
438.047
439.186
440.583
442.504
444.351
445.644
446.648
447.392
447.877
448.602
449.561
450.736
452.362
453.936
455.045
455.907
456.55
456.968
457.596
458.429
459.459
460.89
462.911
465.711
469.246
473.208
477.33
481.551
485.705
489.435
492.564
495.163
497.341
499.185
500.77
502.151
503.363
504.427
505.357
506.164
506.856
507.441
507.923
508.309
508.611
508.839
509
509.11
509.18
509.221
509.244
509.256
509.264
509.273
509.283
509.298
509.313
509.336
509.36
509.377
509.517
509.321
281.886
307.56
296.63
279.702
276.627
280.814
291.471
303.407
313.596
321.968
329.31
335.978
342.278
348.309
354.335
360.432
366.653
372.963
379.02
384.424
388.792
392.073
394.619
396.436
397.885
398.972
399.693
400.774
402.214
404.012
406.547
409.086
410.903
412.348
413.429
414.144
415.214
416.635
418.397
420.845
423.244
424.938
426.27
427.261
427.911
428.884
430.171
431.761
433.312
434.539
436.033
437.5
438.642
439.485
440.036
440.859
441.941
443.265
445.069
446.785
447.982
448.91
449.599
450.049
450.723
451.614
452.701
454.185
455.601
456.597
457.374
457.957
458.337
458.911
459.672
460.609
461.896
463.691
466.155
469.268
472.805
476.563
480.543
484.596
488.328
491.525
494.228
496.523
498.492
500.198
501.69
502.999
504.158
505.179
506.068
506.827
507.459
507.976
508.385
508.696
508.92
509.072
509.165
509.213
509.23
509.232
509.226
509.221
509.22
509.224
509.235
509.25
509.274
509.299
509.32
509.463
509.271
281.906
307.501
296.513
279.466
276.246
280.373
290.926
302.758
312.842
321.121
328.397
335.024
341.322
347.393
353.529
359.826
366.372
373.131
379.745
385.738
390.625
394.312
397.171
399.208
400.827
402.036
402.838
404.036
405.625
407.6
410.356
413.087
415.024
416.554
417.691
418.44
419.559
421.035
422.853
425.355
427.781
429.479
430.803
431.783
432.424
433.381
434.64
436.187
437.686
438.864
440.288
441.679
442.756
443.546
444.06
444.822
445.822
447.039
448.699
450.27
451.355
452.183
452.788
453.179
453.757
454.517
455.44
456.711
457.918
458.755
459.386
459.848
460.143
460.582
461.159
461.873
462.871
464.301
466.294
468.84
471.798
475.148
478.953
483.034
486.892
490.256
493.116
495.542
497.606
499.391
500.975
502.397
503.68
504.829
505.837
506.696
507.408
507.981
508.424
508.746
508.964
509.093
509.153
509.164
509.15
509.119
509.092
509.072
509.063
509.064
509.077
509.096
509.126
509.158
509.189
509.343
509.161
281.933
307.423
296.352
279.152
275.728
279.768
290.174
301.845
311.758
319.874
327
333.497
339.709
345.746
351.926
358.395
365.295
372.642
380.014
386.885
392.615
396.945
400.317
402.718
404.618
406.031
406.966
408.358
410.194
412.461
415.579
418.612
420.733
422.386
423.6
424.396
425.574
427.114
428.997
431.551
433.98
435.656
436.947
437.893
438.509
439.423
440.617
442.07
443.458
444.54
445.831
447.076
448.027
448.721
449.17
449.838
450.709
451.765
453.175
454.473
455.366
456.055
456.57
456.906
457.417
458.09
458.91
459.998
460.983
461.666
462.19
462.585
462.842
463.232
463.737
464.332
465.09
466.062
467.285
468.826
470.781
473.358
476.783
480.8
484.814
488.432
491.553
494.182
496.377
498.262
499.976
501.573
503.042
504.356
505.496
506.46
507.248
507.874
508.352
508.689
508.902
509.01
509.037
509.015
508.957
508.897
508.848
508.816
508.806
508.811
508.832
508.861
508.908
508.953
508.997
509.167
509.006
281.965
307.325
296.161
278.759
275.078
279.008
289.208
300.668
310.326
318.178
325.037
331.272
337.234
343.079
349.144
355.652
362.849
370.827
379.17
387.253
394.14
399.567
403.77
406.755
409.112
410.857
412.009
413.718
415.956
418.703
422.422
425.97
428.421
430.295
431.64
432.514
433.794
435.43
437.4
439.966
442.317
443.921
445.151
446.052
446.638
447.509
448.648
450.03
451.338
452.349
453.529
454.645
455.477
456.071
456.449
457
457.717
458.58
459.766
460.879
461.643
462.218
462.631
462.891
463.267
463.748
464.306
465.057
465.708
466.103
466.325
466.45
466.508
466.569
466.65
466.756
466.904
467.142
467.284
467.384
467.93
469.811
473.414
477.928
482.539
486.629
489.877
492.476
494.651
496.57
498.408
500.2
501.889
503.411
504.736
505.852
506.764
507.485
508.026
508.396
508.61
508.693
508.686
508.613
508.514
508.427
508.365
508.339
508.344
508.372
508.429
508.489
508.572
508.642
508.719
508.922
508.806
282.001
307.224
295.94
278.327
274.343
278.14
288.099
299.302
308.605
316.132
322.558
328.392
333.857
339.278
344.934
351.142
358.346
366.695
375.94
385.462
394.059
400.833
406.314
410.287
413.459
415.828
417.39
419.72
422.746
426.425
431.192
435.369
438.046
439.964
441.29
442.134
443.323
444.798
446.512
448.687
450.616
451.876
452.815
453.496
453.939
454.598
455.469
456.548
457.57
458.361
459.264
460.075
460.634
461.011
461.247
461.593
462.008
462.451
462.953
463.396
463.749
464.092
464.419
464.648
465.058
465.662
466.497
467.762
469.019
469.955
470.704
471.232
471.577
472.081
472.586
472.885
472.909
472.315
470.601
468.01
465.908
466.195
468.91
474.027
479.41
484.041
487.435
489.996
492.177
494.176
496.156
498.17
500.121
501.892
503.421
504.71
505.777
506.63
507.282
507.736
508.005
508.106
508.09
507.99
507.872
507.783
507.741
507.747
507.801
507.884
508.004
508.11
508.251
508.366
508.492
508.745
508.695
282.039
307.116
295.701
277.891
273.548
277.221
286.898
297.825
306.696
313.836
319.655
324.949
329.666
334.291
339.115
344.446
350.975
359.019
368.785
379.706
390.505
399.606
407.414
412.947
417.346
420.504
422.519
425.397
428.781
432.54
436.075
438.042
438.848
439.145
439.272
439.32
439.4
439.506
439.67
440.183
441.103
442.003
442.806
443.418
443.831
444.435
445.217
446.026
446.657
446.783
446.59
446.045
445.108
444.267
443.654
442.67
441.482
440.426
440.025
440.305
441.169
442.494
443.493
444.169
445.191
446.499
447.939
450.009
452.375
454.13
455.474
456.45
457.057
457.922
459.156
460.824
462.983
464.418
464.002
460.823
457.735
458.389
462.812
469.971
476.629
481.553
484.682
486.687
488.597
490.547
492.576
494.811
497.093
499.229
501.097
502.699
504.057
505.168
506.03
506.644
507.042
507.225
507.249
507.178
507.075
507.022
507.034
507.113
507.267
507.436
507.646
507.828
508.049
508.221
508.421
508.72
508.753
282.072
307.016
295.466
277.475
272.73
276.313
285.656
296.349
304.728
311.385
316.571
321.093
324.892
328.298
331.756
335.398
340.109
346.489
355.458
367.226
381.076
392.483
402.326
409.61
414.261
417.13
418.83
421.104
423.472
426.722
426.451
424.612
421.82
418.77
416.393
414.73
412.366
409.305
406.371
403.322
401.87
402.24
403.157
404.472
405.598
407.681
411.096
415.988
420.663
424.045
426.848
427.955
427.735
427.219
426.522
425.134
422.945
419.69
415.261
412.973
412.822
413.758
415.915
418.243
422.202
428.102
437.819
452.837
465.554
473.23
478.034
480.674
482.22
483.786
484.737
484.722
483.741
480.594
470.421
455.242
444.297
443.747
450.445
461.814
471.153
476.864
479.502
480.559
481.629
483.533
485.923
488.699
491.808
494.834
497.46
499.648
501.464
502.954
504.136
505.038
505.709
506.115
506.286
506.287
506.245
506.239
506.324
506.505
506.769
507.043
507.358
507.627
507.936
508.17
508.449
508.779
508.909
282.103
306.93
295.282
277.078
272.019
275.491
284.536
295.023
302.88
309.127
313.668
317.332
320.167
322.183
323.739
325.05
326.566
329.472
335.592
348.437
363.59
380.625
397.96
415.461
431.201
445.927
458.476
479.646
512.19
543.561
556.96
553.644
546.479
536.221
528.137
522.54
514.588
504.282
493.258
477.073
463.919
456.443
453.616
454.036
454.979
457.895
464.573
473.891
481.343
485.82
487.811
486.943
485.124
483.125
481.692
479.209
476.028
470.846
462.803
461.85
464.136
470.261
475.663
478.539
479.359
477.27
461.811
443.251
441.434
443.963
450.822
457.049
460.901
466.071
471.721
477.343
482.089
482.609
474.369
450.8
432.435
429.326
437.47
451.566
462.073
467.907
470.008
470.166
470.272
471.519
474.277
477.677
481.681
485.893
489.583
492.636
495.229
497.477
499.438
501.141
502.6
503.688
504.368
504.7
504.884
505.047
505.304
505.628
506.04
506.441
506.875
507.237
507.636
507.929
508.282
508.638
508.85
282.132
306.857
295.185
276.709
271.506
274.828
283.71
293.902
301.491
307.24
311.357
314.296
316.092
317.08
316.606
315.476
313.329
310.905
313.228
324.719
349.732
395.866
479.947
547.095
593.935
624.639
642.223
668.558
689.006
700.772
692.478
672.375
650.964
631.837
617.346
607.602
593.653
575.148
552.936
517.659
483.811
465.656
458.236
458.904
460.825
467.638
483.294
513.024
542.089
562.918
576.253
573.343
564.831
551.963
542.915
527.868
507.184
481.175
430.567
342.525
287.853
285.029
291.404
297.847
298.346
290.896
273.789
268.041
272.724
282.722
293.145
301.325
306.801
315.664
327.889
344.975
368.785
396.933
412.324
406.846
401.839
411.086
431.576
448.874
458.519
461.28
460.504
457.654
454.775
453.665
454.597
457.707
461.836
466.692
472.008
477.334
482.414
487.111
491.385
495.181
498.376
500.735
502.251
503.081
503.546
503.879
504.268
504.71
505.235
505.737
506.259
506.686
507.145
507.473
507.872
508.236
508.496
282.147
306.824
295.119
276.459
271.129
274.361
283.148
293.085
300.531
305.903
309.643
312.185
313.144
313.039
311.61
308.157
302.871
294.553
292.216
306.072
369.083
507.072
601.391
638.19
659.536
672.319
681.222
696.001
695.898
686.709
661.204
636.299
616.052
595.771
577.651
564.251
541.883
509.934
466.494
406.402
356.898
361.437
376.018
393.597
412.64
434.748
478.466
517.225
557.781
588.403
586.91
570.529
536.859
506.408
486.436
457.452
405.676
340.719
294.144
272.033
293.709
338.233
349.354
343.127
331.023
324.655
329.309
340.636
351.12
356.433
357.84
357.66
356.765
353.485
347.802
338.049
320.891
317.129
334.411
356.858
379.612
405.532
429.993
446.866
454.457
454.109
450.898
446.646
443.363
441.36
440.219
439.828
440.728
444.212
450.568
459.16
468.681
477.462
485.141
491.501
496.347
499.613
501.506
502.387
502.779
503.039
503.406
503.872
504.45
505.006
505.581
506.039
506.529
506.865
507.287
507.647
507.93
282.149
306.823
295.059
276.303
270.859
274.04
282.783
292.522
299.852
305.034
308.393
310.751
311.036
310.375
308.02
302.961
295.133
282.864
274.491
301.184
432.471
557.589
612.012
589.851
558.181
562.484
579.71
582.853
575.726
555.399
543.673
524.845
497.504
469.072
446.616
431.363
407.666
360.118
310.713
275.997
283.582
312.989
340.723
366.528
388.103
422.787
460.629
521.499
558.204
560.12
534.752
463.577
376.832
326.907
306.744
298.963
315.229
331.815
345.115
448.934
501.299
510.356
489.154
466.112
431.502
406.775
401.596
408.458
421.366
431.52
439.321
444.892
448.389
452.548
455.432
455.025
445.708
393.643
354.469
357.307
375.565
403.351
425.613
440.37
445.378
443.268
442.264
442.51
442.735
442.084
440.159
437.585
436.375
438.243
444.797
454.774
466.048
476.374
485.153
492.112
497.08
500.108
501.58
502.032
502.121
502.229
502.546
503.037
503.666
504.265
504.876
505.352
505.859
506.197
506.638
506.988
507.294
282.152
306.823
295.01
276.182
270.676
273.822
282.532
292.146
299.342
304.455
307.507
309.703
309.59
308.512
305.464
299.242
289.65
274.284
261.772
310.094
465.263
558.862
535.175
502.062
500.867
521.818
548.333
542.278
518.661
498.181
463.185
390.86
346.245
319.664
299.08
281.883
258.435
225.131
216.174
279.174
290.242
282.658
343.526
422.366
462.319
471.04
499.586
507.81
490.866
436.143
337.231
271.998
263.227
264.121
271.848
293.265
326.941
369.952
478.56
548.2
548.738
536.12
498.296
470.295
430.583
407.721
404.902
415.19
431.262
442.562
452.25
460.352
466.177
474.114
481.331
492.789
497.301
473.024
397.771
368.321
377.38
399.948
419.838
433.321
437.225
437.529
441.587
447.138
450.556
451.589
450.036
446.532
444.107
445.32
451.596
461.559
472.333
481.542
489.011
494.783
498.688
500.784
501.509
501.489
501.327
501.332
501.649
502.209
502.898
503.539
504.178
504.668
505.189
505.53
505.991
506.331
506.664
282.16
306.819
294.966
276.073
270.538
273.656
282.328
291.86
298.928
303.99
306.834
308.804
308.516
307.047
303.406
296.309
285.331
267.407
252.243
318.66
473.571
536.15
502.165
467.242
450.318
506.142
521.279
467.226
407.194
331.924
244.686
209.689
217.099
207.184
199.064
198.303
203.539
185.296
242.774
291.152
282.235
431.704
474.034
519.191
512.287
458.223
432.191
346.036
274.766
284.983
272.548
263.065
258.52
256.064
261.477
298.62
361.444
470.832
553.729
563.445
538.247
521.049
461.264
429.034
367.68
353.647
351.29
353.467
363.921
381.013
401.041
416.195
432.043
453.362
473.163
492.942
517.945
509.694
444.345
387.373
381.849
395.365
414.69
428.454
433.73
437.858
446.444
454.216
459.523
461.629
460.886
458.105
455.931
457.069
462.844
471.683
480.964
488.161
493.54
497.486
499.94
500.96
501.025
500.659
500.35
500.357
500.739
501.383
502.138
502.818
503.483
503.985
504.521
504.867
505.349
505.683
506.046
282.17
306.791
294.91
275.986
270.431
273.526
282.159
291.646
298.619
303.634
306.346
308.128
307.71
305.966
301.874
294.168
282.186
262.357
245.866
324.868
474.875
520.014
459.257
425.461
415.331
492.692
494.316
376.017
281.21
183.524
146.637
151.38
140.186
129.365
140.628
178.031
195.955
193.711
272.607
315.891
396.888
496.643
486.896
519.234
479.407
303.301
222.532
265.497
271.912
266.298
245.624
229.816
226.372
240.447
243.505
302.095
413.291
533.282
588.121
542.33
519.577
496.411
415.814
395.222
278.885
244.713
235.303
233.981
242.473
257.142
284.16
309.045
346.209
411.113
451.986
487.968
526.176
527.119
471.4
403.411
385.356
393.033
411.276
425.923
432.81
439.884
449.906
458.663
464.876
467.867
467.945
466.196
464.61
465.774
471.044
478.892
487.023
492.894
496.743
499.13
500.303
500.488
500.121
499.543
499.272
499.367
499.888
500.622
501.44
502.155
502.841
503.354
503.904
504.257
504.761
505.089
505.484
282.172
306.784
294.898
275.952
270.363
273.438
282.042
291.505
298.419
303.397
306.027
307.68
307.176
305.255
300.869
292.778
280.147
259.107
242.224
328.296
470.954
507.972
444.475
410.738
395.896
443.325
190.772
196.778
217.801
305.759
337.828
454.509
506.478
482.209
503.161
238.989
285.349
436.854
554.468
596.656
533.075
506.375
482.457
368.195
294.328
343.592
421.97
477.934
531.369
537.834
485.632
413.721
387.387
391.689
408.958
424.208
432.128
440.404
451.116
460.531
467.534
471.445
472.218
471.041
469.652
470.676
475.41
482.612
490.162
495.401
498.312
499.751
500.172
499.905
499.218
498.624
498.422
498.615
499.26
500.062
500.927
501.666
502.367
502.888
503.45
503.809
504.329
504.659
505.07
282.17
306.789
294.905
275.924
270.261
273.305
281.863
291.296
298.128
303.044
305.556
307.018
306.384
304.203
299.387
290.734
277.158
254.347
237.132
330.708
464.861
489.61
408.311
378.058
368.895
397.391
190.891
198.532
243.976
317.308
336.321
479.35
510.004
479.188
479.954
261.995
297
474.573
574.663
599.077
517.385
488.391
463.72
328.097
191.735
225.141
307.612
438.1
525.031
551.149
503.214
425.763
389.507
389.861
405.923
420.71
429.905
440.405
452.103
462.65
470.801
476.114
478.168
477.772
476.443
476.935
480.614
486.609
492.943
497.349
499.425
499.838
499.449
498.447
497.526
496.986
496.948
497.365
498.221
499.143
500.082
500.859
501.584
502.12
502.701
503.075
503.618
503.96
504.387
282.173
306.763
294.874
275.867
270.116
273.122
281.624
291.017
297.75
302.571
304.94
306.155
305.347
302.831
297.46
288.109
273.365
248.487
230.583
331.57
455.347
471.841
383.283
349.049
335.752
337.38
203.368
209.199
223.572
296.464
349.201
486.044
501.742
467.149
467.49
295.589
357.633
527.604
593.294
592.345
500.236
469.359
435.757
305.56
181.879
189.228
217.669
298.222
475.923
541.972
503.017
426.323
388.49
387.184
401.349
413.31
424.49
438.451
452.952
464.895
474.057
480.889
484.702
485.375
484.278
483.795
485.243
489.267
494.222
497.238
498.03
497.604
496.357
495.061
494.267
494.089
494.461
495.407
496.571
497.685
498.733
499.564
500.328
500.892
501.51
501.912
502.498
502.858
503.322
282.179
306.734
294.829
275.792
269.945
272.91
281.343
290.674
297.3
301.987
304.199
305.114
304.093
301.179
295.162
285.038
269.065
242.11
222.224
325.301
440.298
450.958
355.809
318.37
298.176
293.42
206.195
222.469
221.355
212.373
367.997
468.034
480.468
452.282
464.199
303.312
407.665
569.04
615.201
563.705
477.011
445.918
414.036
309.456
203.672
214.708
219.613
232.91
300.542
462.651
475.982
409.157
377.055
379.36
388.195
397.868
414.047
436.781
455.121
468.711
478.571
486.043
490.762
491.59
490.153
488.336
488.061
489.871
492.052
492.797
492.514
491.425
490.111
489.27
489.137
489.652
490.961
492.551
494.146
495.523
496.719
497.631
498.459
499.078
499.761
500.213
500.867
501.255
501.783
282.189
306.699
294.765
275.676
269.724
272.641
280.988
290.211
296.715
301.194
303.219
303.73
302.425
298.982
292.178
281.107
263.861
234.821
210.711
310.069
425.656
437.346
340.676
302.183
275.922
262.083
169.121
204.2
204.213
288.791
432.884
419.645
436.939
417.087
443.986
293.901
417.159
577.482
615.505
530.873
449.359
422.491
414.248
345.783
196.141
206.002
190.495
277.981
308.709
320.72
357.784
342.02
328.424
336.841
341.811
362.051
399.26
435.675
461.916
477.1
486.305
492.532
494.955
494.945
492.792
489.729
487.897
486.313
483.847
481.42
479.667
478.785
478.741
479.458
481.017
483.1
485.484
487.793
489.925
491.667
493.117
494.209
495.193
495.942
496.76
497.313
498.098
498.529
499.196
282.2
306.675
294.716
275.541
269.525
272.4
280.678
289.776
296.18
300.446
302.308
302.439
300.875
296.929
289.495
277.636
259.661
230.103
199.532
281.19
412.714
435.886
348.995
308.32
283.194
271.665
143.782
166.098
266.678
461.454
500.395
367.637
375.925
376.409
407.887
272.081
384.886
565.806
608.436
528.25
457.432
435.359
432.769
389.709
198.442
197.504
203.407
314.695
373.89
387.953
340.69
317.012
301.356
284.292
294.496
334.599
394.068
443.771
474.865
490.582
496.256
496.611
495.112
490.716
485.459
481.126
477.877
473.701
468.744
465.37
464.175
464.824
467.11
470.106
473.317
476.398
479.424
482.196
484.698
486.763
488.516
489.872
491.094
492.04
493.042
493.73
494.69
495.169
496.033
282.211
306.66
294.682
275.434
269.398
272.247
280.478
289.488
295.812
299.949
301.684
301.595
299.832
295.556
287.711
275.438
257.135
228.252
194.208
249.033
399.318
438.169
367.9
324.523
305.268
301.523
151.983
239.755
400.134
515.835
516.457
350.11
307.39
342.472
371.294
279.461
371.01
557.211
603.412
530.834
473.664
461.807
459.524
423.766
208.435
206.309
180.261
272.194
336.997
372.139
367.766
309.88
285.141
254.451
269.898
328.382
395.727
450.037
484.223
498.864
500.462
494.881
483.908
473.693
466.01
461.751
459.434
456.853
454.18
453.233
453.986
456.643
460.281
464.199
467.948
471.379
474.649
477.639
480.376
482.684
484.689
486.273
487.7
488.812
489.966
490.767
491.876
492.391
493.436
282.221
306.651
294.646
275.346
269.298
272.136
280.325
289.278
295.521
299.58
301.177
300.99
299.034
294.515
286.321
273.853
255.294
227.356
192.738
219.183
378.804
440.3
395.546
356.351
343.868
342.313
261.447
376.061
452.29
526.531
497.285
350.455
256.755
322.134
350.09
299.896
373.263
549.34
599.168
537.364
489.287
480.625
495.708
468.124
219.599
219.777
198.017
282.429
325.254
354.403
359.552
300.434
266.314
236.267
261.382
325.658
394.51
450.303
485.793
499.967
498.442
484.988
467.335
453.031
444.343
441.303
441.099
441.819
442.874
444.782
447.77
451.532
455.654
459.679
463.524
467.079
470.482
473.636
476.579
479.103
481.325
483.105
484.71
485.967
487.257
488.16
489.401
489.958
491.156
282.23
306.626
294.593
275.281
269.216
272.049
280.202
289.127
295.306
299.318
300.806
300.552
298.462
293.762
285.333
272.716
254.036
226.89
192.788
199.166
356.777
440.038
426.359
380.477
365.339
407.504
425.267
447.083
465.237
515.541
470.539
347.726
221.165
309.778
340.149
328.598
377.445
543.611
596.511
547.9
504.19
496.734
515.269
491.177
229.602
224.812
221.554
292.022
326.681
349.077
352.619
296.414
257.622
229.128
258.702
322.857
390.135
445.014
480.303
492.445
488.612
471.402
451.279
435.974
428.13
426.785
428.834
432.755
436.578
440.385
444.35
448.404
452.427
456.278
460.036
463.619
467.129
470.42
473.529
476.222
478.61
480.538
482.278
483.648
485.047
486.033
487.384
487.975
489.306
282.231
306.622
294.581
275.263
269.165
271.99
280.116
289.028
295.167
299.15
300.565
300.267
298.093
293.271
284.716
271.979
253.266
226.563
193.83
185.677
338.767
438.318
441.544
405.946
391.892
431.747
471.056
349.388
310.325
301.94
297.834
303.37
323.919
372.59
410.134
461.564
454.382
462.532
500.519
456.246
347.94
213.887
271.062
320.16
300.016
296.757
308.182
297.661
225.627
117.017
90.5754
97.6322
127.538
219.133
338.306
380.742
539.396
594.026
555.37
513.248
505.842
537.396
522.543
409.43
217.039
200.618
231.85
243.641
198.566
179.451
170.489
180.248
234.877
223.711
233.338
295.405
330.184
349.027
349.05
295.535
255.38
227.634
257.323
318.543
382.92
435.806
469.65
480.682
476.179
458.566
439.281
425.414
419.284
419.143
422.742
428.242
433.413
438.085
442.412
446.458
450.301
453.968
457.62
461.196
464.786
468.187
471.416
474.226
476.727
478.754
480.587
482.035
483.51
484.555
485.98
486.603
488.021
282.226
306.632
294.589
275.259
269.092
271.899
279.987
288.884
294.969
298.907
300.216
299.852
297.56
292.557
283.833
270.905
252.151
226.069
195.976
174.478
285.691
430.368
472.441
440.521
427.854
451.912
484.793
461.966
461.231
461.224
469.202
478.555
495.357
496.834
492.012
481.107
423.985
455.218
486.081
436.189
350.203
266.935
222.394
250.863
277.615
293.729
314.575
315.064
280.314
175.169
113.053
124.413
135.816
242.014
336.467
371.703
524.624
583.871
570.871
530.702
524.986
554.325
550.578
466.958
256.333
248.571
276.906
270.479
228.849
212.098
184.464
215.746
231.408
206.3
248.555
297.219
334.363
354.047
347.651
297.442
258.241
229.931
253.589
307.107
365.058
413.587
444.372
454.273
450.151
434.986
420.12
410.894
409.176
411.852
417.764
424.266
430.251
435.439
439.851
443.646
447.116
450.434
453.868
457.396
461.095
464.688
468.125
471.121
473.796
475.976
477.951
479.521
481.114
482.255
483.793
484.474
486.021
282.226
306.613
294.567
275.234
268.992
271.773
279.821
288.694
294.717
298.598
299.773
299.328
296.889
291.649
282.72
269.531
250.719
225.335
198.526
175.87
208.379
385.275
470.319
500.342
519.811
532.816
549.045
569.517
573.993
582.811
597.66
595.118
575.797
525.786
459.872
383.158
385.241
452.552
456.66
422.603
386.134
379.578
359.365
330.434
318.935
300.108
301.249
292.698
232.404
147.769
130.306
140.357
142.2
213.199
308.14
323.545
476.49
571.716
599.623
557.736
549.457
595.505
589.596
531.463
315.157
257.776
289.145
289.53
260.862
242.761
213.414
203.537
201.382
196.657
266.074
302.769
345.213
366.591
353.04
302.285
260.735
228.186
236.795
273.146
318.932
358.888
387.469
400.155
402.074
399.599
397.666
398.549
402.23
408.654
415.95
422.881
428.725
433.39
437.066
440.078
442.831
445.581
448.667
452.077
455.866
459.677
463.405
466.689
469.631
472.032
474.212
475.954
477.721
479
480.71
481.474
483.211
282.23
306.591
294.537
275.192
268.885
271.633
279.64
288.466
294.428
298.235
299.26
298.722
296.107
290.611
281.412
267.938
248.952
224.035
199.633
185.756
174.181
246.237
384.554
458.156
503.079
530.839
555.794
590.706
627.909
637.077
608.211
522.139
415.793
334.416
311.976
324.751
397.647
450.758
432.478
420.41
502.101
542.151
533.822
508.274
471.57
369.833
245.892
189.65
162.245
148.153
143.212
172.087
177.991
184.998
210.186
222.48
336.455
518.658
589.255
586.731
586.129
605.321
584.148
518.934
296.764
275.445
310.097
314.016
281.56
256.247
218.872
204.237
208.167
247.159
296.315
330.824
369.852
388.719
373.979
314.574
262.259
208.84
177.724
205.196
256.68
299.494
330.532
352.489
367.821
378.841
387.513
395.302
402.783
410.236
417.491
423.805
428.612
431.875
434.078
435.749
437.433
439.435
442.097
445.346
449.186
453.198
457.22
460.813
464.069
466.754
469.217
471.205
473.236
474.709
476.68
477.557
479.557
282.237
306.564
294.5
275.12
268.765
271.468
279.435
288.179
294.08
297.779
298.635
297.97
295.142
289.309
279.796
265.851
246.443
221.06
199.022
191.354
186.052
222.488
320.997
383.801
423.056
461.314
486.01
521.54
557.82
579.355
567.796
524.977
465.55
407.204
358.871
362.596
404.743
405.376
412.331
527.475
642.434
633.864
629.192
618.058
588.368
450.975
283.998
273.042
260.63
258.501
265.354
272.747
270.779
267.521
264.144
254.712
249.49
307.78
493.855
548.741
556.747
555.348
519.408
442.348
265.536
272.129
297.653
293.123
259.573
249.058
246.903
267.745
296.488
332.761
365.438
382
389.676
385.845
366.243
298.798
247.301
224.568
237.931
283.474
316.216
335.748
349.076