/*--------------------------------*- C++ -*----------------------------------*\
| =========                 |                                                 |
| \\      /  F ield         | OpenFOAM: The Open Source CFD Toolbox           |
|  \\    /   O peration     | Version:  v2006                                 |
|   \\  /    A nd           | Website:  www.openfoam.com                      |
|    \\/     M anipulation  |                                                 |
\*---------------------------------------------------------------------------*/
FoamFile
{
    version     2.0;
    format      ascii;
    class       volScalarField;
    location    "0.58";
    object      p;
}
// * * * * * * * * * * * * * * * * * * * * * * * * * * * * * * * * * * * * * //

dimensions      [0 2 -2 0 0 0 0];


internalField   nonuniform List<scalar> 
374400
(
0.144454
0.0720767
-0.012113
-0.0436029
-0.0453676
-0.0430983
-0.0454617
-0.0532526
-0.06504
-0.0792954
-0.0949335
-0.11119
-0.12755
-0.143985
-0.160285
-0.175919
-0.190739
-0.204833
-0.217821
-0.229177
-0.23815
-0.244747
-0.249726
-0.253183
-0.255898
-0.257888
-0.259198
-0.261145
-0.263679
-0.266761
-0.270849
-0.274626
-0.27719
-0.279163
-0.280573
-0.281484
-0.282817
-0.284517
-0.28653
-0.289125
-0.291419
-0.292874
-0.293932
-0.294648
-0.295097
-0.295738
-0.2965
-0.297317
-0.297912
-0.298258
-0.29855
-0.298626
-0.298553
-0.298392
-0.298258
-0.298026
-0.297607
-0.296933
-0.295671
-0.293957
-0.292463
-0.291135
-0.290036
-0.289277
-0.2881
-0.286394
-0.284095
-0.280509
-0.276422
-0.273226
-0.27053
-0.268398
-0.266951
-0.264741
-0.261652
-0.257628
-0.25164
-0.24242
-0.228166
-0.207732
-0.181431
-0.150532
-0.115485
-0.077704
-0.0412201
-0.0094309
0.0169405
0.038041
0.054402
0.0667537
0.0757974
0.0821289
0.0862354
0.0885093
0.089276
0.0888106
0.0873474
0.0850911
0.0822151
0.0788622
0.0751488
0.0711656
0.0669824
0.0626538
0.0582235
0.0537242
0.0491783
0.0446007
0.04
0.0353783
0.0307373
0.0260758
0.021398
0.0166936
0.0119769
0.00731922
0.000836933
0.147148
0.0747985
-0.00936186
-0.0408281
-0.0425557
-0.0402413
-0.0425565
-0.0503079
-0.0620712
-0.0763233
-0.0919882
-0.108313
-0.124787
-0.141405
-0.157953
-0.173926
-0.189172
-0.203778
-0.217329
-0.229241
-0.238691
-0.245659
-0.250933
-0.254602
-0.257487
-0.259605
-0.261001
-0.263076
-0.265781
-0.269076
-0.273458
-0.277526
-0.280295
-0.282428
-0.283957
-0.284946
-0.286396
-0.288248
-0.290446
-0.293291
-0.295819
-0.297431
-0.298611
-0.299413
-0.299918
-0.300641
-0.301508
-0.302448
-0.303154
-0.303581
-0.303968
-0.304128
-0.304114
-0.303993
-0.303882
-0.303682
-0.303302
-0.302669
-0.301448
-0.299754
-0.298259
-0.296921
-0.295809
-0.295039
-0.293841
-0.292105
-0.28976
-0.286096
-0.281915
-0.278638
-0.275869
-0.273677
-0.272189
-0.269914
-0.266735
-0.262594
-0.256432
-0.246947
-0.232293
-0.211299
-0.184307
-0.152637
-0.116772
-0.0781786
-0.0409817
-0.00863288
0.0181439
0.0395006
0.0559896
0.0683696
0.0773697
0.0836055
0.0875881
0.0897242
0.0903486
0.0897427
0.0881478
0.0857688
0.0827814
0.07933
0.0755294
0.0714708
0.067224
0.0628429
0.0583705
0.0538379
0.0492663
0.0446684
0.0400524
0.0354204
0.0307712
0.0261025
0.0214199
0.0167117
0.0119892
0.00732639
0.000836744
0.152577
0.0802447
-0.00387792
-0.0352753
-0.0369154
-0.0345016
-0.0367135
-0.0443707
-0.0560639
-0.070285
-0.0859804
-0.102425
-0.119106
-0.136075
-0.153115
-0.169757
-0.185857
-0.201502
-0.216211
-0.229273
-0.239716
-0.247457
-0.253345
-0.257456
-0.260698
-0.263085
-0.26466
-0.267004
-0.270068
-0.273809
-0.278806
-0.283482
-0.286679
-0.289148
-0.290923
-0.292075
-0.293766
-0.295934
-0.298518
-0.301874
-0.304878
-0.306807
-0.308229
-0.309207
-0.309825
-0.310714
-0.31179
-0.312973
-0.313902
-0.314491
-0.315063
-0.315379
-0.315477
-0.31543
-0.315366
-0.315232
-0.314924
-0.314361
-0.313198
-0.311505
-0.309983
-0.308612
-0.307467
-0.306673
-0.305437
-0.30363
-0.301181
-0.297335
-0.292923
-0.28946
-0.286539
-0.284229
-0.282661
-0.280265
-0.27691
-0.272539
-0.26603
-0.256007
-0.240519
-0.218352
-0.189898
-0.156604
-0.119043
-0.0788011
-0.0402034
-0.00679407
0.0207282
0.0425479
0.0592656
0.0716847
0.0805881
0.0866376
0.0903765
0.0922385
0.0925768
0.0916883
0.0898199
0.0871834
0.0839616
0.0803032
0.0763231
0.072109
0.067729
0.063238
0.0586781
0.0540764
0.0494506
0.044812
0.0401662
0.0355121
0.0308467
0.0261652
0.0214704
0.0167509
0.0120191
0.0073477
0.000842884
0.160705
0.0884032
0.00435564
-0.0269157
-0.0283989
-0.0258007
-0.0278134
-0.0352791
-0.0468101
-0.0609243
-0.0765998
-0.0931558
-0.110075
-0.127516
-0.145257
-0.162875
-0.180262
-0.197512
-0.214044
-0.228944
-0.240994
-0.249997
-0.25689
-0.261728
-0.265555
-0.268384
-0.270252
-0.273035
-0.27669
-0.281165
-0.287179
-0.29287
-0.29678
-0.299806
-0.301991
-0.303413
-0.305505
-0.308198
-0.31142
-0.31565
-0.319467
-0.321939
-0.323773
-0.325045
-0.325853
-0.327018
-0.328449
-0.330051
-0.331355
-0.332219
-0.333106
-0.333701
-0.333995
-0.334073
-0.334084
-0.334053
-0.333867
-0.333429
-0.332388
-0.330743
-0.329199
-0.327777
-0.326574
-0.325732
-0.324413
-0.322485
-0.319861
-0.315726
-0.310968
-0.307214
-0.304026
-0.301497
-0.299776
-0.29714
-0.293459
-0.288662
-0.281526
-0.270553
-0.253641
-0.229509
-0.198646
-0.162697
-0.122389
-0.0795193
-0.038731
-0.00370188
0.0249211
0.0473876
0.0643806
0.0768023
0.0854971
0.0912087
0.0945377
0.0959503
0.0958353
0.0945029
0.0922181
0.0892036
0.0856411
0.0816801
0.0774365
0.0729968
0.0684282
0.0637831
0.0590988
0.0543998
0.0497007
0.0450077
0.0403223
0.0356392
0.0309515
0.0262522
0.0215429
0.0168106
0.0120633
0.00737529
0.000851907
0.171508
0.0992611
0.015337
-0.0157333
-0.0169569
-0.0140465
-0.0157116
-0.0228259
-0.0340323
-0.0478808
-0.0633913
-0.0799007
-0.0970596
-0.115007
-0.13358
-0.152411
-0.171537
-0.191006
-0.210123
-0.227681
-0.242087
-0.252951
-0.261333
-0.267254
-0.271953
-0.275442
-0.27775
-0.281193
-0.285731
-0.291303
-0.298853
-0.306065
-0.311032
-0.314888
-0.317686
-0.319511
-0.322202
-0.325679
-0.329856
-0.335357
-0.340349
-0.343598
-0.346026
-0.347723
-0.348808
-0.350378
-0.352314
-0.354502
-0.35632
-0.357558
-0.358872
-0.359822
-0.360366
-0.360606
-0.36072
-0.360833
-0.360794
-0.360492
-0.359534
-0.357817
-0.356154
-0.354616
-0.353307
-0.352394
-0.350961
-0.348833
-0.345914
-0.341271
-0.335875
-0.331624
-0.328039
-0.325204
-0.323283
-0.320344
-0.316219
-0.310842
-0.302835
-0.290517
-0.271533
-0.244505
-0.21008
-0.17024
-0.125969
-0.079416
-0.0356706
0.00145953
0.0314369
0.0546381
0.0718746
0.0841745
0.0925021
0.0976937
0.10041
0.10118
0.100413
0.0984498
0.0955713
0.0920115
0.0879596
0.0835672
0.0789501
0.0741929
0.0693605
0.0645003
0.0596442
0.0548129
0.0500158
0.0452536
0.0405185
0.0357995
0.0310866
0.0263673
0.0216388
0.0168872
0.0121205
0.00741334
0.000864276
0.184926
0.112765
0.0290308
-0.00173348
-0.00255342
0.000854089
-0.000241108
-0.00675497
-0.0173718
-0.0306788
-0.0457442
-0.0619462
-0.0791767
-0.0974716
-0.116873
-0.136988
-0.158319
-0.180668
-0.203266
-0.224522
-0.242282
-0.255832
-0.266388
-0.273894
-0.279874
-0.284334
-0.287288
-0.291704
-0.297545
-0.304742
-0.31458
-0.324071
-0.330622
-0.335719
-0.339433
-0.34186
-0.345444
-0.350095
-0.355701
-0.363121
-0.369896
-0.374334
-0.377662
-0.380002
-0.381499
-0.383669
-0.38637
-0.389456
-0.392078
-0.393894
-0.395865
-0.397391
-0.398331
-0.398817
-0.399074
-0.39938
-0.399569
-0.399493
-0.398734
-0.397054
-0.395294
-0.393599
-0.392125
-0.391079
-0.389422
-0.386983
-0.383628
-0.378291
-0.372101
-0.367176
-0.362968
-0.359622
-0.357336
-0.35383
-0.348948
-0.342587
-0.333138
-0.318656
-0.296484
-0.265127
-0.225474
-0.179979
-0.130037
-0.0783478
-0.0306325
0.00917701
0.0407481
0.0646861
0.0820113
0.0939452
0.101622
0.105989
0.107813
0.107673
0.10602
0.103224
0.099585
0.0953379
0.0906763
0.0857535
0.0806837
0.0755461
0.0703999
0.0652875
0.0602342
0.0552545
0.0503496
0.045514
0.0407317
0.0359817
0.0312465
0.0265082
0.0217596
0.0169859
0.0121957
0.00746118
0.000882182
0.200838
0.128806
0.0453514
0.0150344
0.0148142
0.0189719
0.0187552
0.0132034
0.00358524
-0.00873556
-0.0228925
-0.0383749
-0.0551817
-0.0734285
-0.0934054
-0.115116
-0.13862
-0.16442
-0.191532
-0.217795
-0.240231
-0.2576
-0.271268
-0.281054
-0.288883
-0.294744
-0.298635
-0.304461
-0.312192
-0.321774
-0.334966
-0.34773
-0.35656
-0.36345
-0.368482
-0.371778
-0.376653
-0.382983
-0.390624
-0.400744
-0.409994
-0.416051
-0.420602
-0.423809
-0.425867
-0.428852
-0.432561
-0.436802
-0.440413
-0.442941
-0.445704
-0.447851
-0.449207
-0.44995
-0.45037
-0.450901
-0.451287
-0.451345
-0.450516
-0.448418
-0.446232
-0.44417
-0.442391
-0.441148
-0.439183
-0.436216
-0.432115
-0.425534
-0.417823
-0.411758
-0.406669
-0.402661
-0.399952
-0.395813
-0.389985
-0.382395
-0.371113
-0.353814
-0.327304
-0.289918
-0.242942
-0.189633
-0.132105
-0.0738842
-0.0214411
0.0212929
0.0543811
0.0787836
0.0958349
0.106989
0.113602
0.116768
0.117344
0.115974
0.11315
0.109261
0.104617
0.0994667
0.0940102
0.0884017
0.0827487
0.0771271
0.0715872
0.066159
0.0608602
0.0557014
0.05068
0.0457721
0.0409471
0.0361738
0.0314231
0.0266691
0.0219012
0.0171022
0.0122835
0.00751562
0.000904763
0.21904
0.147191
0.0641271
0.0344334
0.0350623
0.0403068
0.0413906
0.0372983
0.0292547
0.0185789
0.0060707
-0.00787036
-0.0233307
-0.0408516
-0.0607623
-0.0834293
-0.109163
-0.138852
-0.171636
-0.204608
-0.233628
-0.256509
-0.274738
-0.287886
-0.298448
-0.306377
-0.311659
-0.319596
-0.330197
-0.343378
-0.361576
-0.379266
-0.391522
-0.401093
-0.408093
-0.412683
-0.419479
-0.428319
-0.439004
-0.453188
-0.466184
-0.474693
-0.481094
-0.485618
-0.48852
-0.492728
-0.497985
-0.504028
-0.509235
-0.512894
-0.516915
-0.520146
-0.522228
-0.523401
-0.524052
-0.524876
-0.525588
-0.525913
-0.525217
-0.522967
-0.520428
-0.517905
-0.515682
-0.514086
-0.511544
-0.50782
-0.502698
-0.494578
-0.485217
-0.477744
-0.471317
-0.466195
-0.462679
-0.457278
-0.449809
-0.440092
-0.425711
-0.403788
-0.370536
-0.32404
-0.266112
-0.201167
-0.132718
-0.0656189
-0.00720455
0.038785
0.0731678
0.0975256
0.113676
0.123433
0.128409
0.12985
0.12873
0.125754
0.121411
0.116146
0.110262
0.104019
0.0976164
0.0912129
0.0848949
0.0787295
0.0727494
0.0669715
0.0614154
0.056082
0.0509579
0.0459998
0.0411564
0.0363804
0.0316299
0.0268687
0.0220832
0.0172541
0.0124007
0.00758292
0.000941756
0.23921
0.16761
0.085072
0.0562172
0.0580029
0.0647411
0.0676489
0.0656682
0.0599846
0.0518837
0.0421096
0.0309456
0.0181111
0.002902
-0.0155298
-0.0378255
-0.0652211
-0.0987345
-0.138248
-0.180074
-0.218347
-0.249244
-0.274215
-0.292385
-0.307076
-0.31819
-0.325618
-0.336804
-0.351779
-0.370423
-0.396221
-0.421381
-0.43879
-0.452359
-0.462267
-0.468758
-0.478364
-0.490842
-0.505893
-0.525793
-0.54391
-0.555685
-0.564515
-0.570737
-0.574724
-0.580496
-0.587667
-0.595872
-0.60287
-0.607755
-0.613088
-0.617203
-0.619777
-0.621175
-0.621959
-0.622931
-0.623586
-0.623588
-0.621881
-0.617868
-0.61385
-0.610154
-0.607026
-0.604865
-0.601464
-0.596323
-0.589276
-0.57809
-0.565157
-0.55517
-0.546921
-0.540488
-0.536178
-0.529614
-0.52033
-0.50826
-0.490355
-0.462946
-0.421042
-0.362265
-0.289235
-0.20847
-0.125922
-0.0483205
0.016348
0.0650806
0.0998324
0.123093
0.137248
0.144583
0.147054
0.146019
0.142611
0.137574
0.131281
0.124275
0.116837
0.109235
0.101679
0.0943046
0.0871832
0.0803643
0.0738619
0.0676776
0.06183
0.0563182
0.0511098
0.0461354
0.0413137
0.0365705
0.0318444
0.0270902
0.0222941
0.017435
0.012541
0.00765222
0.000990528
0.26011
0.188814
0.106923
0.0791076
0.0823346
0.0909718
0.096244
0.0970619
0.09461
0.090181
0.0845057
0.0777902
0.0695821
0.0589045
0.0445642
0.0252053
-0.00123598
-0.0374107
-0.084025
-0.136915
-0.18797
-0.230583
-0.265819
-0.291812
-0.312934
-0.328962
-0.339671
-0.355797
-0.377396
-0.404325
-0.441607
-0.477739
-0.502541
-0.521812
-0.535855
-0.545078
-0.558762
-0.576431
-0.597653
-0.62555
-0.650897
-0.66755
-0.680149
-0.689104
-0.694878
-0.703267
-0.713726
-0.725751
-0.736084
-0.743298
-0.751132
-0.757159
-0.760848
-0.762771
-0.763749
-0.764852
-0.765521
-0.76519
-0.762448
-0.756913
-0.751431
-0.746243
-0.74185
-0.738728
-0.733806
-0.726856
-0.717588
-0.703479
-0.687963
-0.675762
-0.6652
-0.656732
-0.650857
-0.641815
-0.62944
-0.613299
-0.589324
-0.552604
-0.496651
-0.418042
-0.320198
-0.21402
-0.110611
-0.0194985
0.0513671
0.101331
0.134558
0.154934
0.165751
0.169603
0.168801
0.164743
0.158505
0.150845
0.142232
0.13311
0.123817
0.114627
0.105748
0.0972987
0.0893134
0.0817868
0.0747201
0.0681137
0.0619892
0.056341
0.0511124
0.0461913
0.0414578
0.036796
0.0321241
0.0273908
0.0225868
0.017686
0.0127362
0.00773995
0.00107759
0.280194
0.209236
0.128058
0.101398
0.106253
0.117054
0.125057
0.129188
0.130668
0.130867
0.130586
0.13004
0.128716
0.125458
0.118759
0.1064
0.085159
0.0503665
-0.00132051
-0.0662221
-0.13391
-0.193178
-0.2437
-0.281681
-0.312866
-0.336706
-0.352711
-0.376855
-0.409162
-0.449413
-0.505135
-0.558797
-0.594942
-0.622512
-0.642291
-0.655071
-0.673815
-0.69797
-0.726793
-0.764274
-0.797984
-0.819833
-0.836343
-0.848107
-0.855691
-0.866689
-0.880328
-0.895919
-0.908844
-0.917668
-0.926839
-0.932865
-0.93614
-0.93743
-0.938066
-0.938616
-0.937602
-0.93448
-0.926453
-0.91394
-0.903373
-0.894491
-0.887453
-0.88277
-0.875569
-0.864958
-0.850993
-0.829927
-0.807046
-0.790446
-0.777335
-0.76738
-0.760885
-0.751144
-0.737059
-0.718684
-0.691033
-0.647446
-0.577907
-0.476338
-0.347043
-0.209112
-0.08151
0.0238208
0.0998454
0.149139
0.178487
0.193867
0.199204
0.198091
0.192795
0.184864
0.175209
0.164582
0.15341
0.142008
0.130706
0.119798
0.109516
0.0999486
0.0910924
0.0828782
0.0752104
0.0681578
0.0617635
0.0560238
0.0508563
0.0460803
0.0415166
0.0369999
0.0324275
0.027738
0.0229309
0.0179825
0.0129704
0.00783951
0.00118794
0.298802
0.228198
0.147751
0.122303
0.128878
0.141978
0.15293
0.160697
0.1666
0.172161
0.178351
0.185526
0.193342
0.200691
0.205871
0.206149
0.196883
0.170726
0.119566
0.0438182
-0.0455159
-0.129841
-0.204861
-0.262062
-0.308874
-0.344373
-0.367848
-0.40317
-0.45101
-0.510042
-0.590393
-0.664526
-0.712477
-0.748521
-0.774411
-0.791372
-0.816258
-0.847375
-0.884059
-0.931133
-0.973866
-1.00389
-1.02785
-1.04561
-1.05731
-1.07461
-1.09685
-1.12313
-1.14605
-1.16143
-1.17727
-1.18814
-1.19301
-1.19391
-1.19338
-1.19134
-1.18653
-1.17747
-1.15951
-1.13651
-1.11899
-1.10452
-1.09339
-1.08573
-1.07403
-1.05907
-1.04117
-1.01769
-0.996186
-0.980957
-0.967823
-0.957047
-0.949198
-0.936826
-0.920083
-0.897506
-0.862352
-0.805523
-0.712843
-0.570762
-0.38327
-0.191258
-0.029396
0.0899062
0.165832
0.208224
0.228839
0.236451
0.235206
0.22866
0.218835
0.206831
0.193555
0.179583
0.165448
0.151448
0.137812
0.124924
0.113096
0.102362
0.0926184
0.0836536
0.0753782
0.0678664
0.0612237
0.0554763
0.050457
0.0459317
0.0416254
0.0373115
0.0328662
0.0282242
0.0234038
0.0183878
0.0132943
0.00799417
0.00133665
0.315464
0.245205
0.165465
0.141232
0.14952
0.164914
0.178847
0.190321
0.200859
0.212149
0.225457
0.241439
0.260178
0.280926
0.302382
0.321869
0.333779
0.327694
0.288101
0.207387
0.0945722
-0.0194976
-0.123951
-0.204969
-0.272815
-0.326019
-0.362029
-0.418158
-0.498123
-0.602503
-0.747908
-0.876488
-0.955523
-1.01085
-1.04636
-1.06826
-1.0984
-1.13194
-1.16608
-1.2021
-1.22934
-1.24837
-1.2652
-1.2794
-1.28948
-1.30509
-1.32605
-1.35221
-1.37574
-1.38889
-1.40042
-1.40286
-1.39984
-1.39441
-1.3903
-1.38392
-1.37323
-1.35732
-1.32898
-1.29558
-1.27227
-1.25405
-1.24077
-1.23244
-1.2197
-1.20303
-1.18131
-1.1494
-1.11238
-1.08702
-1.06906
-1.05728
-1.04999
-1.0403
-1.02674
-1.00781
-0.97617
-0.921772
-0.827438
-0.66266
-0.423142
-0.170604
0.034989
0.173121
0.247895
0.280353
0.289192
0.285054
0.274087
0.259925
0.244305
0.227762
0.210699
0.193593
0.176776
0.160286
0.144315
0.129417
0.116069
0.104283
0.0937622
0.0841001
0.0752257
0.0672015
0.0602874
0.054566
0.0498183
0.0456679
0.041725
0.0376845
0.0333982
0.0288106
0.0239708
0.0188721
0.0136865
0.00819651
0.00152186
0.32917
0.259166
0.180038
0.156918
0.16675
0.184191
0.20077
0.215621
0.230437
0.247081
0.267203
0.291841
0.321634
0.356664
0.396577
0.439736
0.481126
0.508262
0.495793
0.419039
0.28044
0.124207
-0.0383668
-0.189729
-0.3327
-0.454002
-0.538664
-0.667431
-0.831276
-1.01232
-1.194
-1.29672
-1.33739
-1.3597
-1.37163
-1.37668
-1.38139
-1.38579
-1.38856
-1.3922
-1.40805
-1.44322
-1.48926
-1.53763
-1.57234
-1.62477
-1.69599
-1.78161
-1.84381
-1.87903
-1.90646
-1.90198
-1.88156
-1.8557
-1.83619
-1.80334
-1.74932
-1.67346
-1.56346
-1.47088
-1.4396
-1.42636
-1.40964
-1.39446
-1.37353
-1.35439
-1.34747
-1.34608
-1.34282
-1.3398
-1.3346
-1.32815
-1.32291
-1.31499
-1.3047
-1.28984
-1.25482
-1.17444
-1.01087
-0.736012
-0.400991
-0.100581
0.12511
0.268741
0.336811
0.354731
0.34684
0.329578
0.309171
0.288352
0.26776
0.247447
0.227359
0.20767
0.188404
0.169374
0.150866
0.133714
0.118736
0.10595
0.0947436
0.0844707
0.0749349
0.0663491
0.0591662
0.0535235
0.0491178
0.0454156
0.0418849
0.0381377
0.0340102
0.0294628
0.0245873
0.0193886
0.0141054
0.00841214
0.00173654
0.339316
0.269418
0.190744
0.168557
0.17962
0.198629
0.217245
0.234758
0.252967
0.273913
0.299502
0.331257
0.370249
0.417466
0.473816
0.539248
0.611024
0.677144
0.705296
0.64828
0.47751
0.225785
-0.0965919
-0.402701
-0.647795
-0.812929
-0.915702
-1.04823
-1.16313
-1.25777
-1.37247
-1.45154
-1.47461
-1.49622
-1.52005
-1.53793
-1.56305
-1.57241
-1.55467
-1.4784
-1.38911
-1.38689
-1.42089
-1.47748
-1.53191
-1.63593
-1.81933
-2.08104
-2.28399
-2.38598
-2.46744
-2.48462
-2.45643
-2.41121
-2.37413
-2.30559
-2.18439
-2.00438
-1.73093
-1.50125
-1.36217
-1.25561
-1.18525
-1.14387
-1.09699
-1.07753
-1.1005
-1.18075
-1.29153
-1.38052
-1.44654
-1.48718
-1.51162
-1.54325
-1.57025
-1.58855
-1.58997
-1.55228
-1.38045
-0.967119
-0.463542
-0.0510581
0.22586
0.378338
0.430446
0.425929
0.397768
0.36549
0.335055
0.307838
0.283216
0.2607
0.239571
0.218859
0.197954
0.176777
0.155996
0.136885
0.120603
0.107197
0.0957272
0.0851293
0.0749853
0.0657405
0.0581589
0.0524889
0.0483662
0.0450831
0.041949
0.0384855
0.0345115
0.0300034
0.0250977
0.0198065
0.0144463
0.00856755
0.00194202
0.346224
0.276328
0.197939
0.176489
0.188438
0.208505
0.228541
0.24794
0.268538
0.29256
0.322047
0.35888
0.40455
0.460583
0.529063
0.611388
0.707346
0.807143
0.877544
0.848187
0.642421
0.278656
-0.143348
-0.464589
-0.688326
-0.838583
-0.933717
-1.04164
-1.12662
-1.28094
-1.58752
-1.80081
-1.88627
-1.92869
-1.94621
-1.94852
-1.93817
-1.89
-1.7785
-1.52043
-1.27653
-1.2727
-1.4216
-1.66349
-1.85598
-2.15335
-2.49368
-2.81749
-2.99176
-3.03466
-3.01891
-2.94112
-2.85355
-2.77219
-2.7106
-2.60162
-2.41131
-2.13543
-1.694
-1.26229
-1.20511
-1.30843
-1.41727
-1.48463
-1.56675
-1.62623
-1.65309
-1.64033
-1.63782
-1.6438
-1.64911
-1.65101
-1.65124
-1.65223
-1.65128
-1.64617
-1.63962
-1.6087
-1.4311
-0.982732
-0.426214
0.0368898
0.335794
0.480555
0.509785
0.48187
0.435285
0.39055
0.351796
0.319522
0.292704
0.269939
0.249145
0.228177
0.206159
0.183244
0.160668
0.140235
0.123203
0.109463
0.0978059
0.0866408
0.0757446
0.0657118
0.0575758
0.051706
0.0477065
0.0447148
0.0418914
0.0386666
0.0348325
0.0303704
0.0254515
0.0200878
0.014679
0.00863932
0.00212036
0.35088
0.280942
0.202734
0.181841
0.194398
0.215168
0.236173
0.256879
0.279113
0.305254
0.337444
0.377764
0.428049
0.490186
0.567029
0.661097
0.774177
0.898774
1.00351
0.994105
0.771453
0.383075
0.0509129
-0.204266
-0.39245
-0.545773
-0.707978
-0.964209
-1.32607
-1.75797
-2.13966
-2.18909
-2.17906
-2.19014
-2.20816
-2.21459
-2.20947
-2.16074
-2.04103
-1.70456
-1.31574
-1.39036
-1.57287
-1.85699
-2.10151
-2.49173
-2.90248
-3.24668
-3.36385
-3.3545
-3.27504
-3.13204
-3.00888
-2.91864
-2.85823
-2.75578
-2.56791
-2.26426
-1.84484
-1.74911
-1.89106
-1.95982
-1.9564
-1.93787
-1.87143
-1.77066
-1.66282
-1.57106
-1.55674
-1.57759
-1.60535
-1.62888
-1.64242
-1.66019
-1.67606
-1.69102
-1.67726
-1.61666
-1.4214
-0.947406
-0.363618
0.124896
0.430115
0.560807
0.569117
0.521666
0.460779
0.406914
0.362587
0.327864
0.300373
0.277671
0.256831
0.235177
0.212108
0.188184
0.164928
0.14419
0.127026
0.113093
0.1008
0.0887015
0.0766703
0.0657004
0.056964
0.050889
0.0469996
0.044271
0.0417264
0.0387163
0.0350106
0.0305961
0.025675
0.0202586
0.0148228
0.00864908
0.00226399
0.354101
0.284112
0.206024
0.185548
0.19852
0.219778
0.241459
0.263084
0.286466
0.314086
0.34818
0.390942
0.44445
0.510853
0.593501
0.695701
0.820649
0.962894
1.09258
1.09885
0.87313
0.548814
0.347655
0.124878
-0.0859163
-0.324565
-0.70443
-1.38764
-2.07059
-2.38831
-2.51045
-2.34749
-2.25506
-2.21441
-2.20261
-2.1973
-2.1913
-2.16004
-2.08415
-1.7399
-1.38881
-1.43896
-1.66928
-2.08986
-2.45449
-2.93219
-3.35127
-3.64507
-3.64721
-3.52869
-3.3428
-3.18902
-3.04981
-2.91342
-2.82465
-2.73145
-2.58505
-2.37004
-2.18596
-2.24014
-2.14041
-1.9613
-1.7766
-1.67326
-1.54663
-1.43083
-1.32827
-1.28692
-1.32882
-1.39617
-1.46191
-1.51372
-1.54796
-1.58326
-1.59262
-1.61418
-1.65246
-1.63874
-1.41914
-0.915331
-0.308686
0.195578
0.502242
0.62056
0.611677
0.549178
0.478226
0.418597
0.371336
0.335808
0.308154
0.28519
0.263663
0.240834
0.216578
0.191879
0.168405
0.147814
0.130717
0.116532
0.10357
0.0904115
0.0772576
0.065445
0.0562475
0.0500664
0.0463167
0.043833
0.0415309
0.0387023
0.0351047
0.030732
0.0258137
0.0203592
0.0149088
0.0086264
0.00237635
0.356609
0.286582
0.208595
0.188445
0.201733
0.22338
0.245595
0.267942
0.292231
0.321013
0.356607
0.401293
0.457329
0.527071
0.614237
0.722733
0.85682
1.01283
1.16166
1.18207
0.967022
0.745391
0.714582
0.518256
0.243189
-0.658888
-1.54245
-2.20167
-2.74382
-2.62545
-2.49604
-2.34469
-2.27239
-2.23126
-2.22105
-2.21896
-2.21933
-2.19605
-2.1262
-1.81618
-1.48718
-1.52786
-1.82462
-2.46724
-2.93117
-3.23903
-3.56535
-3.53624
-3.48268
-3.43485
-3.30786
-3.14273
-3.00242
-2.85648
-2.7238
-2.63877
-2.56026
-2.50783
-2.58633
-2.42562
-2.03856
-1.62508
-1.39348
-1.30713
-1.29864
-1.35521
-1.32906
-1.34784
-1.44343
-1.54409
-1.65242
-1.76013
-1.83756
-1.87433
-1.84881
-1.85986
-1.85938
-1.75352
-1.43788
-0.888205
-0.262176
0.253054
0.560071
0.668016
0.64496
0.570561
0.492432
0.428889
0.379911
0.344061
0.316117
0.292487
0.269872
0.245742
0.220385
0.19507
0.171456
0.151047
0.133958
0.119477
0.105828
0.0916686
0.0775173
0.065005
0.0554718
0.0492563
0.0456667
0.0434154
0.0413313
0.0386618
0.035158
0.0308225
0.0259085
0.0204242
0.0149646
0.00859032
0.0024684
0.358435
0.288396
0.21047
0.190546
0.204074
0.226017
0.248625
0.271501
0.296458
0.326094
0.362793
0.408894
0.466782
0.538958
0.629392
0.742386
0.882918
1.04858
1.21068
1.24208
1.04591
0.923478
1.06389
1.04939
0.964035
-1.05723
-3.85715
-2.42613
-2.83589
-2.50538
-2.48601
-2.33568
-2.26225
-2.22789
-2.21753
-2.21108
-2.22099
-2.20902
-2.1823
-1.90532
-1.64699
-1.70761
-1.97877
-2.87138
-3.83783
-3.28227
-3.60761
-3.5085
-3.49495
-3.43233
-3.30166
-3.12288
-3.11584
-3.35444
-2.78299
-2.53352
-2.54202
-2.66195
-2.805
-2.38047
-1.72032
-1.27805
-1.31928
-1.64613
-1.45167
-1.49724
-1.43807
-1.40674
-1.47484
-1.57675
-1.71489
-1.96257
-2.21851
-2.12182
-2.12637
-2.21715
-2.22796
-2.00857
-1.52084
-0.887397
-0.234166
0.292223
0.601061
0.70218
0.669016
0.586543
0.50391
0.437963
0.388037
0.351896
0.323428
0.298901
0.275063
0.249721
0.22346
0.197684
0.173966
0.153529
0.136397
0.121601
0.107336
0.0923768
0.077459
0.0644476
0.054711
0.04852
0.0450943
0.0430494
0.0411475
0.0386069
0.0351783
0.0308732
0.0259643
0.0204583
0.0149939
0.00854838
0.0025352
0.359617
0.289599
0.211731
0.191916
0.205602
0.22775
0.250621
0.273844
0.299242
0.329441
0.366868
0.413902
0.473007
0.54678
0.639347
0.755259
0.89993
1.07176
1.24228
1.28003
1.09768
1.04694
1.30065
1.47398
1.59747
0.40957
-2.19865
-2.22431
-2.21463
-2.22802
-1.98348
-1.80673
-1.85811
-2.01437
-2.56049
-2.55546
-2.44935
-2.53176
-2.76463
-2.89973
-2.28328
-1.47739
-1.03297
-1.12576
-2.51311
-2.17123
-2.24116
-2.40957
-2.48231
-2.23043
-1.61187
-0.901785
-0.221664
0.315405
0.626867
0.724217
0.68471
0.597273
0.51195
0.444544
0.39402
0.357591
0.32869
0.303442
0.27867
0.252453
0.225563
0.199462
0.175701
0.155168
0.13795
0.122904
0.108206
0.092731
0.0773241
0.0640036
0.0541524
0.0479933
0.0446891
0.0427901
0.0410139
0.0385615
0.0351841
0.0309001
0.0259951
0.0204758
0.0150077
0.00851638
0.00257794
0.361336
0.291396
0.213639
0.193926
0.207847
0.230312
0.253579
0.277314
0.303367
0.334401
0.372906
0.421323
0.482231
0.558361
0.65406
0.774238
0.924904
1.1057
1.28856
1.3347
1.18149
1.24304
1.65989
2.0815
2.37827
2.06832
-2.19301
-2.23407
-2.23948
-2.32287
-2.1386
-2.04436
-2.04179
-2.03707
-2.20268
-2.42296
-2.3983
-2.53002
-2.88926
-2.93039
-2.05772
-1.10804
-0.711656
-0.844257
-2.18238
-2.20298
-2.3641
-2.61113
-2.81458
-2.58887
-1.79428
-0.946628
-0.212814
0.345418
0.66313
0.756112
0.707939
0.613702
0.524855
0.455515
0.404089
0.367072
0.337289
0.310761
0.284396
0.256812
0.228948
0.202497
0.178506
0.157708
0.140207
0.124691
0.109302
0.0930767
0.0769786
0.0632345
0.0532429
0.0471537
0.0440484
0.0423794
0.0407976
0.0384799
0.0351808
0.0309298
0.0260312
0.020494
0.0150193
0.00846222
0.00263918
0.363551
0.293734
0.21611
0.196508
0.21074
0.233629
0.257416
0.281814
0.308719
0.340841
0.380748
0.430961
0.494199
0.573355
0.673024
0.798509
0.956447
1.14788
1.34583
1.40429
1.30045
1.49321
2.08418
2.70406
3.14522
3.07284
-2.22025
-2.28152
-2.32605
-2.44709
-2.33048
-2.25129
-2.19352
-2.00107
-2.00018
-2.31098
-2.31725
-2.54415
-2.97827
-2.8167
-1.67875
-0.661665
-0.402952
-0.586936
-2.36095
-2.36996
-2.5198
-2.77196
-3.06678
-2.95044
-2.0586
-1.06932
-0.239661
0.365588
0.701788
0.794599
0.73817
0.637401
0.544939
0.473427
0.420583
0.381984
0.350314
0.321469
0.292688
0.263234
0.234298
0.207272
0.182877
0.161398
0.143068
0.126574
0.110103
0.0929302
0.0760732
0.061917
0.0518449
0.0459147
0.0431186
0.0417797
0.0404658
0.0383309
0.035138
0.0309335
0.0260473
0.0204897
0.0150114
0.00836337
0.00271674
0.366225
0.296557
0.219103
0.199637
0.214236
0.237641
0.262067
0.287273
0.315214
0.348661
0.390268
0.442671
0.508712
0.591488
0.695839
0.827427
0.993454
1.1962
1.41029
1.48649
1.4392
1.75386
2.48564
3.23113
3.74998
3.77059
-2.2881
-2.33996
-2.40912
-2.48335
-2.42149
-2.3731
-2.26334
-1.90634
-1.79631
-2.15409
-2.19381
-2.54777
-2.99217
-2.55031
-1.18547
-0.203134
-0.185898
-0.44986
-2.41248
-2.49092
-2.66053
-2.90034
-3.22543
-3.1851
-2.33857
-1.26298
-0.326133
0.359213
0.73564
0.837344
0.775856
0.669442
0.574174
0.50014
0.444724
0.402981
0.36803
0.335749
0.303687
0.271816
0.241593
0.213986
0.188804
0.166166
0.146385
0.128346
0.110457
0.092203
0.0746009
0.0600784
0.0499871
0.0443024
0.0419123
0.0409856
0.040001
0.0380898
0.0350283
0.0308852
0.026021
0.0204443
0.01497
0.00820094
0.00281537
0.369795
0.300271
0.223034
0.203817
0.218893
0.242969
0.268253
0.294545
0.323876
0.359098
0.402974
0.458284
0.528034
0.615521
0.725809
0.864748
1.03974
1.25363
1.48432
1.5899
1.58666
1.96501
2.76438
3.567
4.12382
4.16337
-2.34197
-2.33905
-2.34686
-2.36564
-2.35496
-2.27408
-2.10833
-1.64017
-1.4071
-1.81634
-1.89779
-2.31406
-2.74417
-2.18743
-0.846648
-0.0209672
-0.285324
-0.54677
-2.43014
-2.53374
-2.64587
-2.8313
-3.18832
-3.19187
-2.47989
-1.49498
-0.501445
0.285783
0.733605
0.867088
0.814525
0.713688
0.620606
0.544447
0.484804
0.436901
0.395958
0.357777
0.320536
0.285102
0.252976
0.224129
0.197271
0.172556
0.150579
0.130322
0.110346
0.090648
0.0722849
0.0574115
0.0474187
0.0420953
0.0402196
0.0398166
0.039247
0.0376205
0.0347345
0.0306857
0.0258721
0.0202856
0.0148436
0.00787516
0.00297287
0.373135
0.303643
0.226571
0.207711
0.223224
0.247888
0.273964
0.301273
0.331899
0.368773
0.414752
0.472749
0.545874
0.637569
0.752952
0.897673
1.07848
1.29717
1.53554
1.67336
1.66134
1.95298
2.68224
3.46925
4.05154
4.10372
-2.28941
-2.2791
-2.27259
-2.3044
-2.15006
-1.88031
-1.69618
-1.28022
-0.906282
-1.40332
-1.52768
-1.88995
-2.33426
-1.92658
-0.791229
-0.18466
-0.702421
-0.899411
-2.5125
-2.56481
-2.58427
-2.6742
-2.86603
-2.83734
-2.32945
-1.51381
-0.594553
0.201264
0.683951
0.852226
0.832425
0.756471
0.670195
0.592099
0.526723
0.471915
0.42419
0.379479
0.33641
0.29676
0.261779
0.230448
0.201516
0.175435
0.15251
0.131493
0.11056
0.0898441
0.0709444
0.0556704
0.0456036
0.0403514
0.0387416
0.0386685
0.0383709
0.036947
0.0342109
0.0302689
0.0255393
0.0199709
0.0146083
0.00738955
0.0031575
0.375383
0.305864
0.228891
0.210327
0.226123
0.251167
0.277771
0.305765
0.33726
0.375238
0.422621
0.4824
0.557755
0.65219
0.770792
0.918937
1.10252
1.32185
1.5599
1.72318
1.70183
1.85226
2.41345
3.09084
3.65281
3.66558
-2.38842
-2.34554
-2.30959
-2.25001
-1.92383
-1.48041
-1.36672
-1.13063
-0.713612
-1.20956
-1.35996
-1.67396
-2.10099
-1.81141
-0.879299
-0.525613
-1.1686
-1.31974
-2.58735
-2.6156
-2.60926
-2.64617
-2.71735
-2.63837
-2.15315
-1.44923
-0.609636
0.154787
0.644713
0.840542
0.851092
0.791295
0.708149
0.626743
0.555871
0.495583
0.442543
0.392724
0.345418
0.302775
0.265584
0.232478
0.202632
0.176214
0.153521
0.132513
0.111427
0.0902654
0.0709093
0.0552231
0.0447761
0.0393968
0.037828
0.0378812
0.0377147
0.0364034
0.033762
0.0298967
0.0252351
0.019687
0.0143979
0.00697697
0.00330469
0.377092
0.307544
0.23065
0.212322
0.228329
0.253659
0.280667
0.309185
0.341342
0.380163
0.428615
0.489746
0.566785
0.663278
0.784257
0.934839
1.12009
1.33894
1.57344
1.75249
1.73798
1.75141
2.09691
2.56947
3.01076
2.84562
-2.31664
-2.30531
-2.25223
-2.09293
-1.67185
-1.21523
-1.16648
-1.07804
-0.719282
-1.19659
-1.34326
-1.59687
-1.98646
-1.80689
-1.12134
-1.00003
-1.65121
-1.77891
-2.61481
-2.61324
-2.60151
-2.63031
-2.64381
-2.51787
-2.05636
-1.39369
-0.619012
0.11787
0.614913
0.837012
0.870158
0.820449
0.737497
0.652091
0.576423
0.511715
0.454473
0.401035
0.351054
0.306673
0.268282
0.234229
0.203906
0.177418
0.154703
0.133645
0.112411
0.0909355
0.0711611
0.0550743
0.0442943
0.0387603
0.037174
0.0372848
0.0371924
0.0359529
0.0333775
0.0295697
0.0249629
0.0194343
0.0142079
0.00662356
0.00341893
0.378303
0.308745
0.231894
0.213728
0.229891
0.255432
0.282727
0.311616
0.344244
0.383664
0.432876
0.494965
0.573195
0.67113
0.793757
0.945974
1.13219
1.35021
1.58076
1.76513
1.77394
1.6972
1.8254
2.01103
2.2869
1.17871
-2.81797
-2.20346
-2.03754
-1.84948
-1.451
-1.13042
-1.09193
-1.05899
-0.794323
-1.33795