/*--------------------------------*- C++ -*----------------------------------*\
| =========                 |                                                 |
| \\      /  F ield         | OpenFOAM: The Open Source CFD Toolbox           |
|  \\    /   O peration     | Version:  v2006                                 |
|   \\  /    A nd           | Website:  www.openfoam.com                      |
|    \\/     M anipulation  |                                                 |
\*---------------------------------------------------------------------------*/
FoamFile
{
    version     2.0;
    format      ascii;
    class       volScalarField;
    location    "13536";
    object      k;
}
// * * * * * * * * * * * * * * * * * * * * * * * * * * * * * * * * * * * * * //

dimensions      [0 2 -2 0 0 0 0];


internalField   nonuniform List<scalar> 
374400
(
0.0201518
0.019269
0.0189282
0.0188322
0.018834
0.0188667
0.0189019
0.0189313
0.0189544
0.018974
0.0189929
0.0190137
0.0190378
0.0190662
0.0190988
0.0191364
0.0191769
0.0192225
0.0192693
0.0193153
0.019353
0.0193825
0.0194042
0.0194185
0.0194313
0.0194376
0.0194434
0.019452
0.0194591
0.0194667
0.0194748
0.0194854
0.0194942
0.0195029
0.0195075
0.0195118
0.0195185
0.0195243
0.0195308
0.0195378
0.0195466
0.0195538
0.0195608
0.0195644
0.0195678
0.0195731
0.0195774
0.0195826
0.0195863
0.0195898
0.0195939
0.0195969
0.0196
0.0196016
0.019603
0.019605
0.0196064
0.0196074
0.0196086
0.0196115
0.0196135
0.0196152
0.0196158
0.0196161
0.0196161
0.0196156
0.0196142
0.0196126
0.0196117
0.0196109
0.0196097
0.0196088
0.0196079
0.0196058
0.0196034
0.0195993
0.0195937
0.0195848
0.0195727
0.0195556
0.0195337
0.0195072
0.019477
0.0194439
0.0194109
0.0193804
0.0193532
0.0193297
0.0193098
0.0192938
0.0192814
0.0192725
0.019267
0.0192644
0.0192647
0.0192676
0.0192728
0.0192801
0.0192893
0.0193003
0.0193129
0.0193269
0.0193423
0.0193589
0.019377
0.0193958
0.0194158
0.0194359
0.019458
0.0194787
0.0195036
0.0195234
0.0195536
0.0195686
0.019611
0.0196161
0.0196934
0.0201517
0.0192688
0.0189279
0.0188316
0.0188331
0.0188654
0.0189002
0.0189292
0.018952
0.0189715
0.0189904
0.0190114
0.0190359
0.0190651
0.0190987
0.0191375
0.0191797
0.0192272
0.0192761
0.0193241
0.0193634
0.0193941
0.0194166
0.0194314
0.0194446
0.0194512
0.0194571
0.0194659
0.0194732
0.019481
0.0194894
0.0195003
0.0195093
0.0195182
0.0195229
0.0195273
0.019534
0.0195398
0.0195463
0.0195533
0.0195621
0.0195692
0.0195762
0.0195798
0.0195832
0.0195883
0.0195924
0.0195972
0.0196007
0.0196039
0.0196077
0.0196104
0.0196132
0.0196145
0.0196157
0.0196173
0.0196183
0.0196186
0.0196186
0.0196206
0.0196221
0.0196231
0.0196234
0.0196234
0.0196229
0.019622
0.0196199
0.0196176
0.019616
0.0196147
0.0196129
0.0196118
0.0196106
0.0196081
0.0196053
0.0196007
0.0195944
0.0195847
0.0195713
0.0195526
0.0195291
0.0195011
0.0194696
0.0194356
0.0194022
0.0193717
0.0193448
0.0193218
0.0193028
0.0192876
0.0192761
0.019268
0.0192633
0.0192616
0.0192626
0.0192662
0.0192719
0.0192798
0.0192895
0.0193009
0.0193138
0.0193281
0.0193437
0.0193604
0.0193786
0.0193975
0.0194177
0.0194378
0.01946
0.0194808
0.0195058
0.0195256
0.0195559
0.019571
0.0196136
0.0196187
0.0196965
0.0201513
0.0192679
0.0189265
0.0188295
0.0188301
0.0188614
0.0188951
0.0189231
0.0189451
0.0189639
0.0189825
0.0190035
0.0190284
0.0190584
0.0190935
0.0191345
0.0191794
0.0192302
0.0192827
0.0193342
0.0193765
0.0194097
0.0194341
0.0194503
0.0194648
0.019472
0.0194786
0.0194885
0.0194966
0.0195055
0.019515
0.0195269
0.0195366
0.0195463
0.0195514
0.0195562
0.0195636
0.01957
0.019577
0.0195844
0.0195935
0.019601
0.0196083
0.0196121
0.0196156
0.019621
0.0196253
0.0196301
0.0196336
0.0196367
0.0196403
0.0196428
0.0196454
0.0196466
0.0196478
0.0196491
0.0196499
0.0196498
0.019649
0.0196504
0.0196514
0.019652
0.0196521
0.0196519
0.0196511
0.0196498
0.0196474
0.0196442
0.0196416
0.0196396
0.0196372
0.0196357
0.0196342
0.0196313
0.019628
0.0196227
0.0196156
0.0196044
0.0195885
0.0195664
0.019539
0.0195072
0.0194723
0.0194352
0.0193994
0.019367
0.019339
0.0193154
0.0192961
0.0192809
0.0192696
0.0192619
0.0192576
0.0192564
0.0192579
0.0192618
0.0192681
0.0192764
0.0192865
0.0192983
0.0193115
0.0193261
0.019342
0.0193589
0.0193774
0.0193965
0.019417
0.0194373
0.0194597
0.0194807
0.019506
0.019526
0.0195567
0.019572
0.0196153
0.0196204
0.0196994
0.020151
0.0192671
0.0189251
0.018827
0.0188264
0.0188563
0.0188888
0.0189157
0.0189368
0.0189552
0.0189738
0.0189955
0.0190219
0.0190546
0.0190934
0.0191393
0.0191903
0.0192486
0.0193089
0.0193682
0.0194166
0.0194544
0.0194822
0.0195005
0.0195169
0.019525
0.0195324
0.0195435
0.0195527
0.0195627
0.0195736
0.0195871
0.019598
0.0196087
0.0196143
0.0196196
0.0196275
0.0196343
0.0196416
0.0196493
0.019659
0.0196667
0.0196741
0.0196779
0.0196814
0.0196865
0.0196904
0.0196945
0.0196974
0.0197
0.0197024
0.0197042
0.0197058
0.0197065
0.019707
0.0197073
0.0197069
0.0197051
0.0197025
0.0197023
0.019702
0.0197013
0.0197007
0.0196998
0.0196977
0.0196952
0.019691
0.0196854
0.0196805
0.0196766
0.0196724
0.0196699
0.0196675
0.019663
0.0196583
0.0196511
0.0196417
0.0196271
0.0196065
0.0195779
0.0195434
0.0195045
0.0194636
0.0194215
0.019382
0.0193474
0.0193184
0.0192945
0.0192756
0.0192612
0.019251
0.0192446
0.0192416
0.0192415
0.0192442
0.0192494
0.0192567
0.019266
0.019277
0.0192896
0.0193036
0.0193188
0.0193353
0.019353
0.019372
0.0193915
0.0194124
0.0194331
0.019456
0.0194773
0.0195032
0.0195236
0.0195551
0.0195707
0.0196149
0.0196203
0.0197012
0.0201501
0.019265
0.0189217
0.0188217
0.0188188
0.0188461
0.0188758
0.0188999
0.0189185
0.0189346
0.0189514
0.0189721
0.0189984
0.0190323
0.0190737
0.019124
0.0191808
0.0192468
0.0193158
0.019384
0.01944
0.019484
0.0195168
0.0195384
0.0195581
0.0195679
0.019577
0.0195906
0.0196022
0.019615
0.0196285
0.0196444
0.0196573
0.01967
0.0196766
0.0196828
0.0196923
0.0197004
0.019709
0.0197175
0.0197279
0.0197363
0.0197444
0.0197485
0.0197523
0.0197578
0.0197619
0.0197659
0.0197685
0.0197708
0.0197725
0.0197736
0.0197746
0.0197749
0.0197751
0.0197747
0.0197735
0.0197704
0.0197659
0.0197639
0.0197625
0.0197607
0.0197595
0.0197581
0.0197552
0.0197519
0.0197464
0.0197387
0.0197314
0.0197259
0.0197201
0.0197169
0.0197137
0.0197082
0.0197024
0.0196939
0.0196824
0.0196644
0.0196383
0.0196019
0.0195587
0.0195113
0.0194628
0.0194143
0.0193697
0.0193318
0.019301
0.0192763
0.0192572
0.0192431
0.0192335
0.0192278
0.0192257
0.0192266
0.0192303
0.0192364
0.0192446
0.0192547
0.0192665
0.0192798
0.0192945
0.0193103
0.0193274
0.0193456
0.0193651
0.0193851
0.0194064
0.0194275
0.019451
0.0194727
0.0194993
0.0195201
0.0195528
0.0195688
0.0196147
0.0196202
0.0197045
0.0201493
0.0192629
0.018918
0.0188156
0.0188099
0.0188339
0.0188603
0.0188811
0.0188966
0.0189102
0.0189253
0.0189455
0.018973
0.01901
0.0190568
0.0191154
0.0191834
0.0192643
0.0193496
0.0194344
0.0195039
0.0195585
0.019599
0.0196255
0.0196496
0.0196616
0.0196726
0.0196892
0.0197032
0.0197189
0.0197357
0.0197553
0.0197706
0.0197856
0.0197933
0.0198004
0.0198111
0.0198198
0.0198289
0.0198375
0.0198483
0.019857
0.0198649
0.0198689
0.0198723
0.0198769
0.0198797
0.0198816
0.0198826
0.0198829
0.0198815
0.0198804
0.0198789
0.0198777
0.0198764
0.0198732
0.0198691
0.0198617
0.0198528
0.0198467
0.0198422
0.0198372
0.0198343
0.0198312
0.0198254
0.0198193
0.0198098
0.0197968
0.0197841
0.0197746
0.0197648
0.0197594
0.0197543
0.0197455
0.0197368
0.0197243
0.0197083
0.0196834
0.0196479
0.0195991
0.0195426
0.019483
0.0194246
0.0193687
0.0193197
0.0192798
0.019249
0.0192256
0.0192088
0.0191974
0.0191907
0.019188
0.0191887
0.0191924
0.0191987
0.0192072
0.0192177
0.0192299
0.0192435
0.0192585
0.0192748
0.019292
0.0193105
0.01933
0.0193506
0.0193716
0.019394
0.019416
0.0194406
0.0194631
0.0194911
0.0195128
0.0195473
0.019564
0.0196129
0.0196186
0.0197084
0.0201477
0.0192589
0.0189114
0.0188052
0.0187947
0.0188132
0.0188336
0.0188481
0.0188571
0.0188644
0.0188738
0.0188892
0.0189133
0.0189491
0.0189974
0.0190612
0.0191382
0.0192331
0.0193357
0.0194395
0.0195257
0.0195943
0.0196458
0.01968
0.0197114
0.0197272
0.0197418
0.0197643
0.0197835
0.0198052
0.019828
0.0198531
0.0198727
0.0198918
0.0199017
0.0199109
0.0199246
0.0199358
0.0199469
0.0199559
0.0199669
0.0199758
0.0199839
0.0199879
0.0199913
0.0199954
0.0199973
0.0199967
0.0199955
0.0199935
0.0199882
0.0199841
0.0199795
0.0199767
0.0199738
0.0199678
0.0199609
0.0199493
0.0199351
0.0199245
0.0199172
0.0199096
0.0199053
0.0199011
0.0198937
0.0198858
0.019874
0.0198568
0.0198393
0.0198264
0.0198134
0.0198064
0.0197999
0.019789
0.0197783
0.0197632
0.0197435
0.0197122
0.0196665
0.0196032
0.0195307
0.0194564
0.0193859
0.0193207
0.0192657
0.0192228
0.0191913
0.0191686
0.0191533
0.019144
0.0191397
0.0191397
0.0191431
0.0191495
0.0191582
0.0191691
0.0191819
0.0191962
0.0192118
0.0192287
0.0192467
0.0192657
0.0192858
0.0193069
0.0193291
0.0193515
0.0193754
0.0193988
0.0194251
0.019449
0.0194791
0.0195021
0.0195396
0.0195574
0.019611
0.019617
0.0197159
0.0201461
0.0192547
0.018904
0.0187931
0.0187769
0.0187887
0.0188017
0.0188082
0.0188092
0.0188085
0.0188107
0.0188202
0.0188405
0.0188755
0.0189272
0.0190004
0.0190935
0.0192139
0.019348
0.0194869
0.0196028
0.0196952
0.0197647
0.0198106
0.0198526
0.0198737
0.0198932
0.0199233
0.0199492
0.0199787
0.0200099
0.0200429
0.0200678
0.0200912
0.020103
0.0201138
0.0201289
0.0201403
0.0201499
0.0201549
0.0201632
0.0201699
0.0201751
0.0201772
0.0201785
0.020178
0.0201747
0.0201657
0.0201581
0.0201493
0.0201338
0.0201223
0.0201096
0.0201024
0.0200949
0.0200804
0.0200648
0.0200407
0.0200108
0.0199874
0.0199714
0.0199558
0.0199474
0.0199395
0.0199263
0.0199134
0.0198953
0.01987
0.0198435
0.0198239
0.0198041
0.0197937
0.0197841
0.0197683
0.0197532
0.0197326
0.0197063
0.0196647
0.0196041
0.0195209
0.0194284
0.0193372
0.0192552
0.0191839
0.0191276
0.0190872
0.0190609
0.0190446
0.0190363
0.0190342
0.0190369
0.0190435
0.0190532
0.0190656
0.0190801
0.0190963
0.019114
0.0191329
0.019153
0.019174
0.0191959
0.0192186
0.0192422
0.0192665
0.019292
0.0193175
0.0193447
0.0193711
0.0194007
0.0194276
0.0194615
0.0194872
0.0195296
0.0195496
0.0196113
0.0196177
0.0197313
0.0201435
0.0192481
0.0188928
0.0187751
0.0187505
0.0187523
0.0187537
0.0187473
0.0187342
0.0187187
0.0187056
0.0186998
0.0187056
0.0187286
0.0187721
0.0188435
0.0189438
0.0190846
0.0192508
0.0194313
0.0195868
0.0197139
0.0198113
0.0198764
0.019937
0.0199677
0.0199963
0.0200413
0.0200803
0.0201252
0.0201702
0.0202141
0.0202467
0.0202768
0.0202919
0.0203054
0.0203236
0.0203362
0.0203439
0.0203415
0.0203435
0.0203462
0.020347
0.0203467
0.0203456
0.0203397
0.0203303
0.0203109
0.0202952
0.0202781
0.0202494
0.0202284
0.0202058
0.0201932
0.0201805
0.0201565
0.0201311
0.0200929
0.0200443
0.0200045
0.0199772
0.019951
0.0199373
0.0199247
0.0199048
0.0198863
0.0198623
0.0198294
0.0197946
0.0197694
0.0197446
0.0197317
0.0197202
0.019702
0.0196847
0.0196617
0.0196315
0.0195813
0.0195045
0.0193975
0.0192798
0.0191676
0.0190717
0.0189935
0.0189369
0.0189008
0.0188813
0.0188733
0.0188741
0.0188813
0.0188932
0.0189087
0.018927
0.0189476
0.01897
0.0189939
0.0190188
0.0190447
0.0190714
0.0190989
0.0191271
0.0191558
0.0191853
0.0192151
0.019246
0.0192769
0.0193096
0.0193412
0.0193767
0.0194088
0.0194491
0.0194796
0.0195302
0.0195539
0.0196284
0.0196354
0.0197726
0.0201408
0.0192413
0.0188808
0.0187553
0.018721
0.0187111
0.0186989
0.0186771
0.018647
0.018613
0.01858
0.0185537
0.0185395
0.0185446
0.0185749
0.0186425
0.0187524
0.0189258
0.019146
0.0194009
0.0196278
0.0198166
0.019963
0.0200606
0.0201512
0.020197
0.0202396
0.0203062
0.0203635
0.0204276
0.020487
0.0205402
0.0205771
0.0206084
0.0206231
0.0206351
0.020647
0.0206506
0.0206408
0.020612
0.0205941
0.0205829
0.0205691
0.0205609
0.0205516
0.0205296
0.0205037
0.0204592
0.0204252
0.0203891
0.0203322
0.0202906
0.0202461
0.0202215
0.0201967
0.0201506
0.0201033
0.0200341
0.0199499
0.0198798
0.0198313
0.0197845
0.0197602
0.0197378
0.0197021
0.0196699
0.0196296
0.0195783
0.0195258
0.019488
0.0194516
0.019433
0.0194166
0.0193915
0.0193686
0.0193394
0.0193019
0.0192397
0.0191447
0.0190143
0.0188775
0.0187562
0.0186632
0.0185983
0.018562
0.0185497
0.018555
0.0185713
0.0185952
0.0186243
0.018657
0.0186921
0.0187291
0.0187672
0.0188061
0.0188453
0.0188849
0.0189247
0.0189647
0.0190048
0.019045
0.0190852
0.0191258
0.0191662
0.0192074
0.019248
0.0192905
0.0193311
0.0193761
0.0194162
0.0194667
0.0195039
0.0195666
0.0195951
0.0196871
0.0196968
0.0198661
0.0201375
0.0192328
0.0188663
0.0187318
0.0186859
0.0186617
0.0186325
0.018591
0.0185379
0.0184773
0.0184139
0.0183536
0.0183017
0.0182669
0.0182571
0.0182894
0.0183761
0.0185518
0.0188085
0.0191419
0.0194621
0.0197435
0.0199709
0.0201259
0.0202731
0.0203481
0.0204185
0.0205294
0.0206233
0.0207242
0.0207993
0.0208509
0.0208816
0.0209006
0.0209073
0.0209101
0.0208996
0.0208768
0.0208237
0.0207344
0.0206719
0.0206327
0.0205935
0.0205728
0.0205517
0.0205087
0.0204625
0.0203886
0.0203327
0.0202746
0.0201835
0.020116
0.020044
0.0200045
0.0199649
0.0198926
0.0198189
0.0197135
0.019586
0.0194795
0.0194077
0.0193409
0.0193072
0.019277
0.0192315
0.0191919
0.0191452
0.0190868
0.0190263
0.0189839
0.0189445
0.0189247
0.018908
0.018884
0.0188624
0.0188353
0.0187982
0.0187304
0.0186187
0.018464
0.0183084
0.018184
0.0181048
0.0180683
0.0180685
0.0180953
0.0181398
0.0181946
0.0182552
0.018319
0.0183843
0.0184502
0.018516
0.0185811
0.0186452
0.0187081
0.0187698
0.0188303
0.0188897
0.018948
0.0190053
0.0190614
0.019117
0.0191714
0.0192259
0.0192787
0.0193331
0.0193845
0.0194407
0.0194899
0.0195517
0.0195965
0.0196724
0.019706
0.0198168
0.019828
0.0200363
0.0201343
0.0192248
0.0188523
0.0187087
0.0186512
0.0186124
0.0185657
0.0185032
0.0184253
0.0183353
0.0182374
0.0181364
0.0180377
0.0179502
0.0178839
0.0178605
0.017903
0.0180666
0.0183636
0.01881
0.0192775
0.019712
0.0200777
0.020331
0.0205758
0.0207012
0.0208193
0.0210069
0.021161
0.0213051
0.0213525
0.0213379
0.0213069
0.0212514
0.0212157
0.021174
0.0210763
0.0209651
0.0207885
0.0205614
0.0204096
0.0203182
0.0202364
0.0201962
0.0201578
0.0200882
0.0200208
0.0199201
0.0198429
0.0197603
0.0196267
0.0195235
0.01941
0.0193467
0.0192825
0.0191652
0.0190458
0.0188756
0.0186737
0.0185078
0.0183974
0.0182984
0.0182497
0.0182069
0.0181446
0.0180926
0.0180355
0.0179704
0.0179053
0.0178612
0.017822
0.0178031
0.0177881
0.0177692
0.0177537
0.0177369
0.0177126
0.0176603
0.0175635
0.0174305
0.0173134
0.0172502
0.0172495
0.0173028
0.0173919
0.0175018
0.0176214
0.0177444
0.0178673
0.0179887
0.0181075
0.0182226
0.0183331
0.0184385
0.018539
0.0186348
0.018726
0.018813
0.018896
0.0189754
0.0190516
0.0191247
0.0191954
0.0192632
0.0193299
0.0193934
0.0194578
0.0195176
0.0195826
0.0196384
0.019709
0.0197582
0.019845
0.01988
0.0200089
0.0200178
0.020269
0.020131
0.0192163
0.0188378
0.0186849
0.0186156
0.0185618
0.0184966
0.0184115
0.0183061
0.0181824
0.018043
0.017891
0.0177294
0.0175647
0.0174057
0.0172739
0.0172009
0.0172578
0.0174964
0.0179658
0.0185519
0.0191898
0.0198179
0.0202922
0.0207964
0.0210658
0.0213299
0.0217673
0.0221107
0.0223662
0.0222722
0.0220085
0.0217676
0.0214805
0.0213193
0.0211527
0.0208304
0.0205072
0.0200624
0.0195641
0.0192488
0.0190741
0.0189439
0.01889
0.018847
0.0187891
0.0187491
0.0186931
0.0186326
0.0185578
0.0184022
0.0182626
0.0180987
0.0180055
0.0179105
0.0177372
0.0175602
0.0173057
0.0169988
0.0167588
0.0166072
0.0164795
0.0164204
0.0163718
0.0163088
0.0162654
0.0162356
0.0162254
0.0162214
0.0162257
0.0162364
0.0162438
0.016254
0.0162777
0.016301
0.0163323
0.0163566
0.0163544
0.0162966
0.0162088
0.0161596
0.0161931
0.0163046
0.016479
0.0166853
0.0169034
0.0171178
0.0173244
0.0175208
0.0177075
0.0178851
0.0180535
0.018212
0.0183605
0.0184993
0.0186287
0.0187491
0.0188611
0.0189654
0.0190627
0.019154
0.0192395
0.0193207
0.019397
0.0194708
0.0195401
0.0196096
0.019673
0.0197422
0.0198
0.0198754
0.0199247
0.0200195
0.0200517
0.0201973
0.0201997
0.0204962
0.020128
0.0192091
0.0188254
0.0186645
0.0185849
0.0185178
0.0184362
0.0183308
0.0182002
0.0180449
0.0178658
0.0176632
0.0174371
0.0171891
0.0169235
0.0166547
0.0164166
0.0162873
0.01635
0.0167747
0.0175258
0.0186166
0.0199595
0.0210791
0.0223972
0.0231146
0.0238146
0.0248812
0.0255232
0.0256275
0.0246799
0.0235334
0.0226602
0.021754
0.0212704
0.020795
0.0199529
0.0191557
0.0181348
0.0170715
0.0164138
0.0160675
0.0158588
0.0157983
0.015773
0.0158042
0.0158872
0.0159959
0.0160056
0.0159657
0.0158132
0.0156331
0.0153982
0.0152592
0.0151145
0.0148472
0.0145722
0.0141749
0.0136788
0.0132786
0.013012
0.0127783
0.0126666
0.0125724
0.0124502
0.0123778
0.0123577
0.0124438
0.0125751
0.0126893
0.0128171
0.0128869
0.0129569
0.0130871
0.0132138
0.0133866
0.0135796
0.0137968
0.0139771
0.0141508
0.0143652
0.0146616
0.0150162
0.0154141
0.0158122
0.0161896
0.0165343
0.0168502
0.0171383
0.017403
0.0176458
0.0178681
0.0180713
0.018257
0.0184266
0.0185817
0.0187234
0.018853
0.0189716
0.0190803
0.0191805
0.019273
0.0193595
0.0194398
0.0195169
0.0195884
0.0196604
0.0197252
0.0197969
0.0198553
0.0199347
0.0199831
0.0200856
0.0201139
0.020277
0.0202717
0.0206154
0.0201255
0.019203
0.0188154
0.0186483
0.0185606
0.018483
0.0183884
0.0182668
0.0181156
0.0179344
0.0177219
0.017476
0.0171925
0.016867
0.0164957
0.0160776
0.0156335
0.0152139
0.0149225
0.015055
0.0157856
0.0177064
0.020617
0.0232304
0.0264334
0.0281176
0.0296177
0.0313143
0.0316946
0.0305197
0.0274833
0.0246502
0.0226542
0.0207149
0.0197003
0.0187428
0.0171736
0.0157624
0.0140649
0.0122525
0.0110299
0.010425
0.0103221
0.0104145
0.0105928
0.0110271
0.0114561
0.0118696
0.0119547
0.0118822
0.0115043
0.0111127
0.0106704
0.0104367
0.0102168
0.00986879
0.00956059
0.00915296
0.00862815
0.00819645
0.00791477
0.00768356
0.00758083
0.0074962
0.00739589
0.00736037
0.00742004
0.00770048
0.00805361
0.00833332
0.00863028
0.00878717
0.00893816
0.00921026
0.00947473
0.00983614
0.0102595
0.0107825
0.0113058
0.0118659
0.0124616
0.0131137
0.0137725
0.0144283
0.0150322
0.0155708
0.0160403
0.0164557
0.0168218
0.0171465
0.0174344
0.0176906
0.0179195
0.0181239
0.0183048
0.0184657
0.0186099
0.0187398
0.0188578
0.0189655
0.0190647
0.0191563
0.0192423
0.0193225
0.0194002
0.0194724
0.0195462
0.0196126
0.019688
0.0197485
0.019834
0.0198843
0.0199977
0.0200254
0.0202077
0.020197
0.0205868
0.0201235
0.0191986
0.0188081
0.0186367
0.0185433
0.0184583
0.0183546
0.0182213
0.0180555
0.0178556
0.0176189
0.0173411
0.0170151
0.0166308
0.0161767
0.0156358
0.0150079
0.0142939
0.0135849
0.0132787
0.0138719
0.0173178
0.0225472
0.0273252
0.0328064
0.0354156
0.0372711
0.0380756
0.0367323
0.032744
0.0268997
0.022145
0.0191653
0.0166081
0.0153447
0.0141317
0.0120978
0.0101271
0.00776007
0.0054455
0.00474751
0.005377
0.0065303
0.00712612
0.00767432
0.00841854
0.00890773
0.00913318
0.00899312
0.00864759
0.00789778
0.00727352
0.00662779
0.00629126
0.00597977
0.00554644
0.00524602
0.00493614
0.00454441
0.00418292
0.00391794
0.00368871
0.00358004
0.00348604
0.00335888
0.00329648
0.0033373
0.00359977
0.0039825
0.00431208
0.00468376
0.00488901
0.00510049
0.00549767
0.005893
0.00645157
0.00711434
0.00805449
0.0091061
0.0101549
0.0111408
0.0121072
0.0130126
0.0138463
0.0145803
0.0152142
0.0157512
0.0162147
0.0166154
0.0169649
0.0172703
0.0175331
0.0177595
0.0179561
0.0181287
0.0182819
0.0184192
0.0185433
0.0186566
0.0187605
0.0188568
0.0189464
0.0190312
0.0191108
0.0191886
0.0192614
0.0193366
0.0194045
0.0194827
0.0195449
0.019635
0.0196864
0.0198076
0.0198337
0.0200329
0.0200155
0.0204433
0.0201221
0.0191954
0.0188031
0.0186286
0.0185314
0.0184414
0.0183314
0.0181902
0.0180144
0.0178017
0.0175485
0.0172488
0.0168936
0.0164689
0.0159575
0.0153303
0.0145676
0.0136169
0.0125438
0.0117749
0.0123029
0.0173371
0.0241204
0.0303728
0.0366071
0.039323
0.0406248
0.0395312
0.0364483
0.0295651
0.0218869
0.0160936
0.0123732
0.00855401
0.00635498
0.00487356
0.00371623
0.00291349
0.00305336
0.0034497
0.00334316
0.00523054
0.00700518
0.00785137
0.00838761
0.00862093
0.0085461
0.00794948
0.00736535
0.00654161
0.00510119
0.00393872
0.00279908
0.00230178
0.00189498
0.00172826
0.00192722
0.00216135
0.00209396
0.00184103
0.00158847
0.00138446
0.00127491
0.00120511
0.00111969
0.00110499
0.00127915
0.00176853
0.0023405
0.00268759
0.00305179
0.00323966
0.00343526
0.00381341
0.00419826
0.0047659
0.00549844
0.00659277
0.00784619
0.00912871
0.0103197
0.0114581
0.0125003
0.0134439
0.0142508
0.0149366
0.0155096
0.0159978
0.0164192
0.0167809
0.0170851
0.017342
0.0175615
0.0177514
0.017918
0.0180661
0.0181992
0.01832
0.0184307
0.0185328
0.0186281
0.0187172
0.0188021
0.0188823
0.0189612
0.0190355
0.0191128
0.0191827
0.019264
0.019329
0.0194242
0.0194773
0.0196052
0.01963
0.019841
0.0198183
0.0202737
0.0201211
0.0191932
0.0187996
0.0186231
0.0185232
0.0184296
0.0183151
0.0181682
0.0179852
0.017763
0.0174976
0.0171818
0.0168049
0.0163499
0.0157951
0.0151019
0.0142321
0.0130911
0.0117036
0.010511
0.0112146
0.0173415
0.0246046
0.0313338
0.0371058
0.0396027
0.0399271
0.0357392
0.0308777
0.0204497
0.0119125
0.00397001
0.00326081
0.00326635
0.00304609
0.00281961
0.00264286
0.00247036
0.00238181
0.00234133
0.00335761
0.00647577
0.00862673
0.00978022
0.00985163
0.00857799
0.00734458
0.00506742
0.00365751
0.00242673
0.00162215
0.00136054
0.000802304
0.000378632
0.000532675
0.000453338
0.000461059
0.0008982
0.00109669
0.00107809
0.00101284
0.00104826
0.00125734
0.00146105
0.00175661
0.00208045
0.00239908
0.0029355
0.00341685
0.00372795
0.00404964
0.00421628
0.00435372
0.0045386
0.00470087
0.00492876
0.00531306
0.00609984
0.00723381
0.00853829
0.00980254
0.0110175
0.0121389
0.0131454
0.0139941
0.0147064
0.0152973
0.015801
0.0162292
0.0165912
0.0168927
0.0171452
0.0173596
0.0175449
0.017708
0.0178533
0.0179845
0.018104
0.0182138
0.0183155
0.0184107
0.0185001
0.0185857
0.0186668
0.018747
0.0188227
0.0189018
0.0189735
0.0190575
0.0191246
0.0192239
0.0192796
0.0194142
0.0194401
0.01966
0.0196319
0.0201084
0.0201205
0.0191918
0.0187973
0.0186192
0.0185172
0.0184208
0.0183029
0.0181516
0.0179632
0.0177341
0.0174598
0.0171324
0.0167399
0.0162637
0.0156787
0.0149402
0.0139947
0.0127267
0.0111254
0.00963657
0.0106842
0.0171622
0.0241083
0.0303287
0.0349296
0.0370062
0.0365609
0.030664
0.02365
0.00862232
0.0027869
0.00316794
0.00288123
0.00265325
0.00234492
0.00217338
0.00212219
0.00210939
0.00218185
0.00270879
0.00471441
0.00780456
0.00994834
0.0115256
0.0106562
0.00743952
0.00476452
0.00133545
0.000621074
0.000665306
0.000591361
0.000602799
0.00053191
0.000744008
0.000911533
0.00085095
0.000607811
0.0005854
0.000955789
0.001322
0.00175772
0.00229394
0.00279013
0.00285261
0.00286395
0.00285712
0.00283189
0.00307834
0.00341633
0.0036661
0.00396172
0.00414423
0.00431267
0.00450817
0.00466902
0.0048748
0.00516048
0.00574128
0.00671879
0.00799124
0.00929121
0.010553
0.0117293
0.0128004
0.0137048
0.0144454
0.0150556
0.0155761
0.0160076
0.0163682
0.0166705
0.0169234
0.0171373
0.0173218
0.017484
0.0176289
0.01776
0.0178797
0.0179901
0.0180926
0.0181891
0.0182799
0.0183672
0.0184501
0.0185325
0.0186103
0.018692
0.018766
0.0188529
0.018922
0.0190245
0.0190825
0.0192225
0.0192507
0.0194778
0.0194491
0.0199415
0.0201204
0.0191913
0.018796
0.0186165
0.0185127
0.0184141
0.0182933
0.0181385
0.0179455
0.0177105
0.0174284
0.0170904
0.0166837
0.0161871
0.0155729
0.0147899
0.0137701
0.0123776
0.0105708
0.00878124
0.0103168
0.0166623
0.0228487
0.0280349
0.0313703
0.0336169
0.0343751
0.0187734
0.0101111
0.00555177
0.00241027
0.00257898
0.00217526
0.00193204
0.00180907
0.00168282
0.0019351
0.0022116
0.00260129
0.00368911
0.00631499
0.00880319
0.0106983
0.0131059
0.0108038
0.00248076
0.00127427
0.000519733
0.000362286
0.000356376
0.000340576
0.000402762
0.000228897
0.000883998
0.00116475
0.00135393
0.00134841
0.00116635
0.00134526
0.00196976
0.00255674
0.00291712
0.00268651
0.00201362
0.00148265
0.00126388
0.000965491
0.000867188
0.00106579
0.0012796
0.00164596
0.00191809
0.00239585
0.00316032
0.0037279
0.00430604
0.00480642
0.0054447
0.00640541
0.00767578
0.00899098
0.0102725
0.0114687
0.0125602
0.013491
0.0142509
0.0148741
0.0153972
0.0158276
0.0161834
0.0164827
0.0167356
0.0169498
0.017134
0.0172957
0.0174401
0.0175707
0.0176903
0.0178008
0.0179037
0.0180008
0.0180925
0.0181808
0.018265
0.0183488
0.018428
0.0185114
0.0185869
0.0186757
0.018746
0.0188507
0.0189083
0.0190509
0.0190756
0.0193086
0.0192728
0.0197757
0.0201201
0.0191905
0.0187946
0.0186143
0.0185094
0.0184094
0.0182868
0.0181297
0.0179337
0.0176948
0.0174075
0.0170628
0.016647
0.0161381
0.0155065
0.0146987
0.0136393
0.0121844
0.0102814
0.00834678
0.0101294
0.0161686
0.021929
0.0262165
0.0284065
0.0297788
0.000938523
0.00136819
0.0020969
0.0027556
0.00421425
0.00704896
0.00922424
0.0107031
0.0133689
0.00107611
0.00150087
0.00186927
0.00200728
0.00207709
0.00261554
0.00304174
0.00327328
0.00309701
0.000905894
0.00187883
0.00263126
0.00350434
0.00425591
0.00502393
0.00602058
0.0073124
0.00864787
0.00995102
0.0111669
0.012277
0.0132303
0.0140119
0.0146464
0.0151783
0.0156185
0.0159802
0.0162824
0.0165406
0.0167608
0.0169504
0.0171165
0.0172643
0.0173979
0.0175202
0.0176333
0.0177388
0.0178383
0.0179325
0.0180233
0.0181098
0.0181959
0.0182775
0.0183631
0.0184407
0.0185318
0.0186037
0.0187103
0.0187682
0.018913
0.0189356
0.019173
0.019133
0.0196436
0.0201192
0.0191887
0.0187922
0.0186109
0.0185046
0.0184028
0.0182779
0.0181179
0.0179182
0.0176747
0.0173817
0.0170295
0.016604
0.0160823
0.0154339
0.0146024
0.0135067
0.011996
0.0100083
0.00794149
0.0098747
0.015585
0.0208671
0.0243602
0.0254938
0.0248784
0.000851946
0.00127537
0.00203826
0.00290564
0.00470123
0.00764837
0.00949295
0.0106954
0.0129373
0.000983778
0.00155496
0.00218522
0.00265284
0.0030658
0.00333811
0.003558
0.00352984
0.00301028
7.10408e-05
0.000437882
0.00107642
0.00204791
0.00303409
0.00396943
0.00505952
0.00645425
0.00786678
0.00923184
0.0105033
0.0116642
0.0126673
0.0134938
0.0141589
0.0147178
0.0151896
0.0155884
0.0159127
0.0161874
0.0164232
0.0166277
0.0168059
0.0169633
0.017105
0.0172342
0.0173536
0.0174648
0.0175698
0.017669
0.0177646
0.0178557
0.0179462
0.0180318
0.0181214
0.0182027
0.0182971
0.0183716
0.0184806
0.0185402
0.0186874
0.0187113
0.0189532
0.0189157
0.0194342
0.0201185
0.0191871
0.0187895
0.0186066
0.0184984
0.018394
0.0182658
0.0181016
0.0178965
0.0176461
0.017344
0.01698
0.0165388
0.0159961
0.0153189
0.014447
0.0132887
0.0116805
0.00954131
0.00722206
0.00925488
0.0143607
0.0187978
0.0211667
0.021151
0.019197
0.0007517
0.00103498
0.00180523
0.00300781
0.00539951
0.0084689
0.00984169
0.0107762
0.0129971
0.000871465
0.00155157
0.00236031
0.00300481
0.00359991
0.00395946
0.00404549
0.00383203
0.00332655
6.11488e-05
5.85709e-05
0.000158366
0.000922595
0.00190539
0.00290258
0.00401706
0.00550114
0.00698114
0.00840149
0.00971888
0.0109144
0.0119442
0.0128065
0.0135063
0.0140937
0.0145938
0.0150252
0.0153944
0.0157092
0.0159688
0.016189
0.0163799
0.0165484
0.0167002
0.0168386
0.0169664
0.0170853
0.0171974
0.0173032
0.0174051
0.0175021
0.0175981
0.0176889
0.0177834
0.0178693
0.0179683
0.0180471
0.0181609
0.0182245
0.0183769
0.0184051
0.0186547
0.0186187
0.0191492
0.0201179
0.0191855
0.0187867
0.0186019
0.0184912
0.0183836
0.0182515
0.0180824
0.0178711
0.0176128
0.0173007
0.0169237
0.0164659
0.0159016
0.0151963
0.0142868
0.0130742
0.0113885
0.00913541
0.00661348
0.00840619
0.0130285
0.0168137
0.0184282
0.0177701
0.0149254
0.000929933
0.00100889
0.00157962
0.00288804
0.00590279
0.00891053
0.00990726
0.0107141
0.0131366
0.000785583
0.00152827
0.00245361
0.00318435
0.00382516
0.00412205
0.00401861
0.00371277
0.00319142
8.73552e-05
9.05134e-05
0.000110853
0.000192033
0.000802964
0.00165185
0.00271716
0.00419041
0.00570146
0.00711067
0.00843871
0.00965981
0.0107265
0.0116408
0.0124077
0.0130566
0.0136126
0.0140969
0.0145208
0.0148938
0.0152207
0.0154862
0.0157111
0.0159073
0.0160824
0.016241
0.0163867
0.0165218
0.0166486
0.0167681
0.0168826
0.0169915
0.0170987
0.0172
0.0173047
0.0174
0.0175085
0.0175966
0.0177202
0.0177928
0.0179546
0.0179895
0.0182472
0.0182138
0.0187585
0.0201171
0.0191833
0.0187829
0.0185956
0.0184817
0.01837
0.0182328
0.0180571
0.0178377
0.017569
0.0172439
0.0168504
0.0163717
0.0157807
0.0150419
0.0140887
0.012821
0.0110675
0.00871457
0.00597768
0.00717345
0.011344
0.0147625
0.0160226
0.0150323
0.0115974
0.00123783
0.00107485
0.00105843
0.00234124
0.00656865
0.00905902
0.00960609
0.0103509
0.0129881
0.000697624
0.0014961
0.00249139
0.00324512
0.00387691
0.00411083
0.00394695
0.00367346
0.00307281
0.000112249
0.000154438
0.00020682
0.000239739
0.000336113
0.000765831
0.00162485
0.00285831
0.00424576
0.00554545
0.00681959
0.00795915
0.00901546
0.00996374
0.0107948
0.0115219
0.0121522
0.0127058
0.0131949
0.0136298
0.0140183
0.0143638
0.0146723
0.0149265
0.0151444
0.0153375
0.0155123
0.0156726
0.0158221
0.0159621
0.0160959
0.0162228
0.0163472
0.0164651
0.0165857
0.0166965
0.01682
0.0169223
0.0170601
0.0171455
0.0173207
0.0173656
0.0176373
0.0176081
0.0181792
0.020116
0.019181
0.0187792
0.0185896
0.0184727
0.018357
0.0182148
0.0180329
0.0178056
0.017527
0.0171891
0.0167795
0.0162802
0.0156635
0.0148934
0.013902
0.0125982
0.0108296
0.00848062
0.00574806
0.00541323
0.00922685
0.0129066
0.0151857
0.0150069
0.0112565
0.00137714
0.00111903
0.000910587
0.00308937
0.00768745
0.008596
0.00844396
0.0091874
0.0115778
0.000494056
0.00124954
0.00220464
0.002972
0.00366794
0.00398492
0.0038633
0.00364152
0.00307715
0.000247188
0.000387674
0.000552497
0.000614769
0.00062622
0.000648706
0.00111108
0.00207339
0.00330544
0.00445604
0.00563814
0.00671165
0.00770538
0.00863418
0.00947382
0.0102277
0.0108888
0.011472
0.011989
0.0124504
0.0128641
0.013237
0.0135745
0.0138774
0.0141521
0.0143987
0.0146086
0.0147942
0.0149631
0.0151195
0.015268
0.0154089
0.0155472
0.0156786
0.015813
0.0159375
0.0160751
0.0161911
0.0163433
0.0164418
0.0166327
0.0166881
0.0169799
0.0169555
0.0175615
0.0201153
0.0191794
0.0187767
0.0185855
0.0184666
0.0183483
0.0182027
0.0180165
0.0177838
0.0174982
0.0171516
0.0167307
0.0162172
0.0155828
0.0147919
0.0137767
0.0124563
0.0106964
0.00840447
0.00574757
0.00484417
0.00901917