/*--------------------------------*- C++ -*----------------------------------*\
| =========                 |                                                 |
| \\      /  F ield         | OpenFOAM: The Open Source CFD Toolbox           |
|  \\    /   O peration     | Version:  v2006                                 |
|   \\  /    A nd           | Website:  www.openfoam.com                      |
|    \\/     M anipulation  |                                                 |
\*---------------------------------------------------------------------------*/
FoamFile
{
    version     2.0;
    format      ascii;
    class       volScalarField;
    location    "0.59";
    object      omega;
}
// * * * * * * * * * * * * * * * * * * * * * * * * * * * * * * * * * * * * * //

dimensions      [0 0 -1 0 0 0 0];


internalField   nonuniform List<scalar> 
374400
(
281.889
307.771
297.02
280.334
277.358
281.556
292.252
304.402
314.814
323.327
330.65
337.198
343.255
348.912
354.4
359.775
365.102
370.345
375.246
379.536
382.97
385.545
387.554
388.996
390.153
391.025
391.606
392.481
393.655
395.129
397.239
399.401
400.973
402.241
403.2
403.837
404.798
406.089
407.705
409.991
412.285
413.933
415.246
416.234
416.885
417.867
419.175
420.809
422.432
423.727
425.331
426.929
428.19
429.132
429.75
430.677
431.908
433.427
435.528
437.575
439.022
440.157
441.005
441.56
442.393
443.498
444.861
446.749
448.594
449.904
450.932
451.705
452.21
452.969
453.979
455.228
456.962
459.403
462.773
467.02
471.769
476.642
481.496
486.128
490.168
493.445
496.074
498.194
499.927
501.365
502.573
503.605
504.493
505.26
505.923
506.491
506.975
507.386
507.733
508.025
508.265
508.46
508.615
508.736
508.831
508.903
508.96
509.005
509.041
509.07
509.099
509.121
509.146
509.169
509.184
509.316
509.116
281.891
307.768
297.014
280.324
277.342
281.536
292.227
304.374
314.787
323.302
330.632
337.191
343.261
348.935
354.443
359.844
365.2
370.476
375.41
379.73
383.188
385.781
387.802
389.253
390.416
391.294
391.878
392.758
393.937
395.418
397.537
399.707
401.284
402.555
403.517
404.155
405.118
406.411
408.03
410.318
412.613
414.261
415.573
416.561
417.212
418.192
419.499
421.129
422.749
424.041
425.64
427.234
428.49
429.428
430.044
430.968
432.193
433.705
435.795
437.832
439.27
440.398
441.24
441.792
442.619
443.716
445.069
446.943
448.775
450.075
451.096
451.862
452.362
453.115
454.116
455.355
457.073
459.495
462.839
467.054
471.772
476.617
481.451
486.073
490.112
493.395
496.031
498.161
499.907
501.356
502.578
503.622
504.524
505.303
505.975
506.552
507.045
507.462
507.814
508.109
508.351
508.545
508.699
508.819
508.912
508.984
509.039
509.082
509.118
509.147
509.174
509.197
509.223
509.246
509.26
509.393
509.193
281.893
307.759
296.998
280.295
277.299
281.489
292.172
304.314
314.725
323.247
330.593
337.172
343.271
348.981
354.534
359.991
365.413
370.762
375.771
380.159
383.671
386.304
388.354
389.824
391.003
391.891
392.482
393.372
394.564
396.061
398.2
400.386
401.974
403.253
404.22
404.861
405.829
407.127
408.751
411.044
413.341
414.988
416.299
417.284
417.934
418.912
420.214
421.84
423.451
424.737
426.327
427.909
429.155
430.086
430.696
431.611
432.825
434.321
436.388
438.397
439.816
440.928
441.758
442.302
443.117
444.199
445.531
447.374
449.172
450.449
451.45
452.202
452.694
453.433
454.416
455.633
457.319
459.695
462.973
467.108
471.74
476.506
481.279
485.859
489.877
493.158
495.806
497.956
499.726
501.204
502.456
503.53
504.459
505.263
505.958
506.554
507.062
507.492
507.853
508.152
508.396
508.591
508.742
508.857
508.946
509.013
509.064
509.103
509.135
509.162
509.188
509.209
509.234
509.256
509.271
509.404
509.204
281.897
307.747
296.974
280.248
277.224
281.405
292.074
304.206
314.611
323.137
330.503
337.112
343.251
349.013
354.635
360.179
365.706
371.175
376.307
380.808
384.411
387.11
389.21
390.714
391.919
392.826
393.429
394.337
395.552
397.076
399.251
401.468
403.076
404.369
405.345
405.992
406.968
408.275
409.909
412.212
414.513
416.161
417.47
418.453
419.101
420.075
421.371
422.987
424.586
425.86
427.434
428.998
430.228
431.145
431.746
432.647
433.84
435.309
437.338
439.307
440.695
441.78
442.589
443.118
443.911
444.962
446.256
448.047
449.794
451.032
452.001
452.727
453.202
453.915
454.863
456.037
457.665
459.961
463.135
467.143
471.642
476.287
480.967
485.492
489.487
492.774
495.446
497.634
499.447
500.97
502.267
503.385
504.357
505.201
505.93
506.555
507.088
507.537
507.91
508.216
508.46
508.651
508.794
508.901
508.98
509.037
509.079
509.11
509.136
509.158
509.18
509.199
509.223
509.245
509.26
509.394
509.196
281.904
307.727
296.935
280.171
277.103
281.268
291.913
304.023
314.413
322.937
330.321
336.961
343.15
348.98
354.692
360.357
366.035
371.679
376.997
381.674
385.42
388.223
390.4
391.959
393.205
394.142
394.765
395.701
396.954
398.522
400.752
403.017
404.655
405.969
406.961
407.617
408.606
409.929
411.578
413.897
416.205
417.852
419.158
420.137
420.782
421.751
423.038
424.641
426.223
427.481
429.031
430.567
431.772
432.67
433.258
434.138
435.303
436.736
438.707
440.612
441.951
442.997
443.777
444.287
445.052
446.066
447.312
449.03
450.696
451.877
452.801
453.495
453.948
454.631
455.538
456.659
458.212
460.395
463.409
467.22
471.512
475.971
480.511
484.951
488.915
492.212
494.921
497.161
499.036
500.628
501.993
503.177
504.208
505.106
505.883
506.55
507.115
507.589
507.978
508.293
508.539
508.725
508.863
508.96
509.027
509.072
509.104
509.125
509.144
509.159
509.177
509.194
509.215
509.237
509.252
509.385
509.189
281.914
307.697
296.876
280.055
276.918
281.057
291.659
303.731
314.089
322.595
329.986
336.652
342.891
348.797
354.62
360.439
366.321
372.214
377.804
382.744
386.709
389.677
391.979
393.622
394.934
395.919
396.573
397.555
398.866
400.504
402.824
405.169
406.858
408.208
409.224
409.896
410.905
412.253
413.93
416.277
418.601
420.252
421.557
422.532
423.173
424.135
425.41
426.993
428.55
429.785
431.302
432.8
433.973
434.843
435.411
436.26
437.382
438.758
440.65
442.472
443.747
444.738
445.473
445.953
446.669
447.617
448.779
450.387
451.945
453.044
453.898
454.536
454.951
455.574
456.401
457.424
458.846
460.857
463.647
467.188
471.197
475.415
479.792
484.157
488.118
491.46
494.239
496.557
498.511
500.179
501.625
502.889
503.997
504.965
505.806
506.529
507.142
507.65
508.061
508.384
508.63
508.807
508.929
509.008
509.056
509.082
509.096
509.104
509.113
509.122
509.137
509.151
509.173
509.196
509.212
509.35
509.156
281.928
307.655
296.79
279.886
276.646
280.743
291.278
303.286
313.582
322.041
329.415
336.086
342.361
348.339
354.283
360.29
366.431
372.667
378.647
383.977
388.276
391.498
393.992
395.77
397.185
398.246
398.949
400.003
401.406
403.152
405.61
408.076
409.84
411.245
412.297
412.992
414.034
415.418
417.132
419.515
421.853
423.504
424.802
425.769
426.403
427.353
428.609
430.162
431.679
432.879
434.343
435.782
436.902
437.731
438.272
439.08
440.145
441.447
443.222
444.913
446.093
447.008
447.689
448.133
448.799
449.68
450.756
452.225
453.628
454.616
455.386
455.965
456.343
456.914
457.671
458.604
459.885
461.674
464.132
467.25
470.828
474.673
478.798
483.052
487.008
490.415
493.294
495.729
497.806
499.596
501.152
502.513
503.715
504.774
505.699
506.491
507.155
507.701
508.136
508.47
508.715
508.884
508.991
509.048
509.072
509.075
509.071
509.065
509.063
509.065
509.074
509.088
509.11
509.135
509.154
509.296
509.106
281.948
307.596
296.672
279.65
276.261
280.298
290.73
302.634
312.826
321.189
328.496
335.124
341.398
347.418
353.471
359.677
366.139
372.824
379.361
385.28
390.097
393.725
396.533
398.53
400.116
401.3
402.084
403.256
404.808
406.732
409.412
412.069
413.955
415.445
416.554
417.284
418.374
419.814
421.587
424.025
426.391
428.045
429.337
430.294
430.919
431.852
433.081
434.593
436.059
437.211
438.604
439.966
441.021
441.795
442.298
443.045
444.026
445.221
446.851
448.397
449.465
450.281
450.88
451.267
451.84
452.593
453.509
454.772
455.975
456.809
457.439
457.901
458.197
458.635
459.213
459.926
460.921
462.347
464.334
466.879
469.857
473.263
477.19
481.465
485.552
489.133
492.177
494.747
496.922
498.787
500.428
501.895
503.218
504.404
505.449
506.345
507.092
507.699
508.173
508.523
508.765
508.915
508.99
509.011
509.001
508.972
508.942
508.92
508.908
508.907
508.917
508.934
508.962
508.993
509.023
509.175
508.995
281.975
307.517
296.51
279.336
275.74
279.689
289.974
301.72
311.739
319.937
327.093
333.588
339.776
345.762
351.86
358.236
365.049
372.32
379.616
386.407
392.068
396.338
399.657
402.018
403.886
405.275
406.193
407.559
409.356
411.571
414.614
417.575
419.646
421.261
422.447
423.224
424.376
425.88
427.717
430.209
432.58
434.215
435.475
436.4
437.001
437.894
439.061
440.481
441.836
442.892
444.152
445.365
446.292
446.969
447.406
448.057
448.907
449.936
451.311
452.58
453.453
454.127
454.632
454.962
455.463
456.127
456.937
458.019
459.006
459.694
460.224
460.625
460.886
461.284
461.801
462.413
463.195
464.193
465.44
466.985
468.938
471.536
475.048
479.235
483.466
487.293
490.599
493.378
495.685
497.648
499.412
501.046
502.552
503.906
505.089
506.094
506.923
507.587
508.099
508.468
508.709
508.841
508.885
508.873
508.82
508.758
508.705
508.668
508.652
508.654
508.671
508.698
508.742
508.786
508.83
508.996
508.838
282.008
307.42
296.319
278.943
275.086
278.924
289.003
300.54
310.305
318.237
325.121
331.354
337.288
343.082
349.068
355.481
362.586
370.484
378.74
386.735
393.535
398.892
403.037
405.979
408.299
410.016
411.148
412.827
415.024
417.716
421.358
424.841
427.249
429.088
430.409
431.267
432.524
434.128
436.061
438.586
440.898
442.475
443.684
444.57
445.146
446
447.117
448.469
449.744
450.728
451.872
452.948
453.746
454.313
454.673
455.194
455.871
456.685
457.805
458.864
459.595
460.151
460.555
460.811
461.185
461.672
462.248
463.036
463.737
464.175
464.435
464.588
464.666
464.749
464.847
464.982
465.164
465.448
465.646
465.742
466.204
467.949
471.586
476.277
481.134
485.481
488.954
491.709
493.986
495.967
497.836
499.651
501.371
502.932
504.301
505.464
506.421
507.184
507.767
508.176
508.425
508.538
508.548
508.49
508.39
508.298
508.227
508.191
508.189
508.211
508.263
508.32
508.401
508.471
508.547
508.747
508.633
282.043
307.319
296.097
278.511
274.346
278.051
287.888
299.171
308.58
316.186
322.635
328.465
333.899
339.263
344.849
350.952
358.053
366.319
375.474
384.893
393.401
400.103
405.526
409.453
412.587
414.926
416.468
418.767
421.75
425.375
430.071
434.169
436.789
438.667
439.962
440.785
441.945
443.383
445.054
447.178
449.074
450.312
451.238
451.912
452.349
453
453.861
454.92
455.921
456.697
457.577
458.364
458.903
459.264
459.487
459.815
460.202
460.606
461.032
461.383
461.664
461.942
462.22
462.416
462.772
463.309
464.056
465.23
466.451
467.393
468.179
468.76
469.14
469.711
470.354
470.836
471.038
470.738
469.281
466.749
464.448
464.547
467.086
472.334
477.959
482.88
486.538
489.264
491.533
493.574
495.566
497.584
499.556
501.368
502.95
504.29
505.407
506.307
507.004
507.503
507.817
507.956
507.963
507.881
507.758
507.659
507.602
507.596
507.636
507.712
507.827
507.932
508.072
508.186
508.312
508.563
508.515
282.081
307.212
295.855
278.076
273.547
277.125
286.682
297.692
306.667
313.885
319.728
325.007
329.701
334.265
339.013
344.236
350.661
358.62
368.299
379.121
389.833
398.878
406.634
412.124
416.488
419.611
421.6
424.435
427.749
431.415
434.799
436.602
437.287
437.488
437.541
437.544
437.552
437.572
437.651
438.028
438.906
439.86
440.78
441.49
441.968
442.674
443.598
444.572
445.352
445.599
445.46
444.986
444.107
443.228
442.585
441.531
440.19
438.841
438.046
438.054
438.453
439.475
440.43
441.053
442.019
443.33
444.816
446.87
449.241
451.006
452.356
453.332
453.945
454.81
456.028
457.713
460.1
462.096
462.124
459.454
456.091
456.464
460.651
468.076
475.136
480.452
483.894
486.079
488.033
489.982
491.986
494.19
496.47
498.64
500.563
502.224
503.636
504.802
505.719
506.388
506.839
507.071
507.128
507.076
506.968
506.896
506.891
506.947
507.086
507.248
507.456
507.637
507.858
508.03
508.231
508.528
508.566
282.114
307.113
295.618
277.664
272.724
276.211
285.437
296.209
304.7
311.429
316.64
321.138
324.921
328.263
331.637
335.176
339.792
346.103
354.996
366.712
380.542
391.934
401.694
408.901
413.489
416.261
417.905
420.068
422.305
425.349
424.975
422.996
420.081
416.988
414.574
412.875
410.466
407.37
404.439
401.585
400.516
401.012
402.118
403.61
404.787
406.914
410.364
415.338
420.264
423.935
427.136
428.571
428.45
428.042
427.404
425.978
423.63
420
414.595
411.011
410.068
410.327
411.225
412.833
416.229
421.319
429.876
444.474
457.704
466.066
471.698
474.994
476.994
479.298
481.146
481.864
481.622
479.683
470.968
455.51
443.312
441.702
447.729
459.448
469.404
475.773
478.877
480.148
481.184
482.947
485.224
487.904
490.961
494.035
496.762
499.055
500.956
502.518
503.763
504.723
505.456
505.928
506.156
506.183
506.142
506.115
506.17
506.325
506.572
506.838
507.151
507.421
507.732
507.969
508.25
508.579
508.715
282.145
307.027
295.433
277.268
272.008
275.384
284.312
294.879
302.855
309.159
313.739
317.371
320.18
322.15
323.609
324.825
326.265
329.134
335.246
348.166
363.334
380.213
397.227
414.423
430.161
444.583
457.022
478.234
510.647
541.885
555.308
552.033
545.013
534.785
526.671
521.018
512.943
502.496
491.372
475.987
463.859
457.233
455.092
455.615
456.666
459.732
466.46
475.569
482.306
486.115
486.941
485.706
483.17
480.596
478.991
476.316
472.917
467.833
458.537
456.027
457.697
462.747
468.597
472.701
475.781
475.534
466.665
445.765
440.668
441.922
446.549
452.745
456.841
462.546
468.878
475.129
480.782
482.49
476.177
452.943
432.654
427.616
434.671
449.11
460.385
466.887
469.518
469.905
469.97
470.924
473.401
476.638
480.513
484.758
488.622
491.836
494.539
496.859
498.876
500.635
502.173
503.368
504.153
504.552
504.756
504.902
505.13
505.427
505.821
506.216
506.651
507.017
507.421
507.718
508.075
508.431
508.651
282.175
306.951
295.337
276.898
271.491
274.72
283.48
293.756
301.468
307.271
311.415
314.348
316.09
317.024
316.505
315.26
313.052
310.613
313.033
324.701
349.393
394.899
478.728
546.02
593.136
624.163
641.852
668.257
688.49
699.274
690.466
669.751
648.616
629.82
615.455
605.808
591.791
572.756
549.319
513.255
479.808
462.378
455.893
456.675
458.705
465.73
481.39
510.799
540.083
562.226
577.414
574.637
566.007
552.579
542.642
526.637
504.191
477.547
430.878
346.879
287.629
281.989
288.495
298.677
301.289
298.295
281.558
271.426
273.664
281.107
290.772
298.492
303.641
312.011
323.707
340.319
364.308
393.842
411.733
406.303
399.098
406.941
427.876
446.633
457.476
460.986
460.506
457.933
454.938
453.475
453.998
456.629
460.539
465.214
470.481
475.861
481.034
485.831
490.221
494.172
497.572
500.168
501.894
502.864
503.389
503.719
504.08
504.493
504.999
505.496
506.023
506.456
506.923
507.257
507.662
508.027
508.295
282.192
306.918
295.271
276.648
271.113
274.25
282.917
292.937
300.503
305.942
309.686
312.239
313.147
312.975
311.5
307.941
302.622
294.324
292.219
305.835
367.977
506.102
601.338
637.986
659.735
672.486
681.52
696.06
695.794
686.617
659.738
634.147
614.365
595.507
578.225
565.466
543.317
509.023
463.213
401.98
354.756
359.557
374.192
391.519
409.671
431.715
473.06
512.55
548.674
581.264
582.056
569.985
541.583
511.645
491.113
463.012
413.548
344.676
295.55
269.448
283.748
328.273
342.448
337.634
325.007
317.458
321.791
334.855
347.298
354.404
357.155
357.558
357.259
354.8
349.234
339.15
319.138
310.195
324.798
347.749
371.637
399.567
426.685
445.562
454.305
454.342
451.226
447.023
443.896
442.037
440.958
440.375
440.76
443.38
449.043
457.04
466.394
475.312
483.239
489.956
495.228
498.907
501.125
502.203
502.664
502.908
503.229
503.651
504.205
504.754
505.336
505.804
506.304
506.648
507.076
507.437
507.729
282.193
306.917
295.212
276.49
270.844
273.927
282.55
292.377
299.816
305.081
308.432
310.795
311.042
310.322
307.905
302.744
294.899
282.696
274.584
300.771
431.563
557.586
612.192
590.318
559.028
563.57
580.805
583.506
576.372
556.521
544.153
525.724
501.068
473.106
450.066
433.938
409.034
360.967
310.097
274.175
283.106
310.187
333.214
360.553
381.932
418.471
455.321
510.557
548.807
554.705
534.014
475.778
392.94
339.096
315.137
303.213
314.929
330.097
337.991
433.645
488.611
497.412
475.769
453.743
423.532
401.098
396.477
403.531
417.773
428.838
437.451
443.629
447.6
452.541
456.256
456.258
448.448
397.255
346.6
347.757
367.321
398.176
423.786
440.583
446.201
443.942
442.192
442.43
443.155
443.215
441.966
439.494
437.678
438.571
443.795
452.889
463.74
474.131
483.158
490.53
496.001
499.507
501.333
501.963
502.077
502.134
502.371
502.808
503.409
504.003
504.624
505.113
505.632
505.979
506.427
506.778
507.092
282.196
306.918
295.163
276.368
270.662
273.707
282.296
292.005
299.299
304.503
307.551
309.73
309.606
308.461
305.345
299.027
289.425
274.159
261.893
309.339
464.984
559.034
535.421
503.107
501.905
523.746
549.629
543.255
519.339
498.655
465.047
394.715
349.991
323.607
303.827
287.133
261.386
224.179
218.307
276.602
281.317
282.103
348.134
429.149
466.575
472.784
494.881
499.95
485.526
438.585
344.205
274.273
264.95
264.661
271.929
293.349
326.085
364.514
464.416
537.322
538.517
523.291
482.927
455.092
418.842
400.478
398.536
408.032
426.05
439.11
449.848
458.271
464.356
473.244
481.224
492.614
500.129
478.852
397.751
361.023
370.788
396.278
419.634
434.775
438.761
438.071
440.792
446.477
450.729
452.941
452.468
449.512
446.46
446.528
451.207
460.193
470.551
479.828
487.458
493.546
497.884
500.408
501.43
501.512
501.333
501.255
501.464
501.963
502.627
503.268
503.922
504.426
504.961
505.31
505.778
506.119
506.461
282.203
306.914
295.12
276.257
270.523
273.541
282.09
291.722
298.882
304.035
306.884
308.825
308.529
307
303.282
296.104
285.114
267.321
252.326
317.913
473.52
536.687
502.707
468.54
451.909
508.689
522.65
468.346
408.341
333.02
247.606
211.241
218.743
209.52
200.037
197.163
199.197
182.455
243.362
288.321
283.574
436.06
471.407
513.257
505.199
445.183
417.178
332.442
268.544
282.057
272.903
263.802
258.795
256.169
261.612
295.676
355.655
457.454
541.216
553.899
527.911
506.502
443.08
410.993
352.5
344.335
348.575
354.529
365.878
382.017
402.423
417.61
432.928
453.756
473.152
491.88
519.034
514.902
450.24
384.877
378.299
393.48
415.819
430.571
435.34
437.72
445.067
453.103
459.379
462.909
463.28
461.226
458.553
458.558
462.785
470.71
479.644
486.999
492.51
496.684
499.47
500.817
501.065
500.759
500.367
500.273
500.53
501.116
501.853
502.54
503.223
503.741
504.292
504.645
505.134
505.469
505.841
282.214
306.886
295.064
276.17
270.416
273.41
281.919
291.509
298.572
303.677
306.398
308.146
307.721
305.919
301.75
293.968
281.976
262.303
245.886
324.084
474.904
520.427
460.209
426.952
416.926
494.89
495.669
375.957
281.323
183.32
147.249
151.256
139.791
128.691
137.181
172.565
190.217
192.433
271.561
313.874
404.385
491.775
480.98
511.599
470.476
296.927
217.781
263.833
271.758
266.343
243.667
227.698
225.095
247.379
253.241
297.72
403.287
520.547
575.488
533.803
510.722
480.814
400.046
379.339
267.99
239.904
236.543
237.255
245.425
260.824
288.708
313.655
351.082
413.075
453.131
486.917
528.064
532.605
479.268
405.512
384.8
393.073
413.156
428.261
434.242
439.356
448.425
457.444
464.634
469.029
470.223
469.14
467.194
467.311
471.132
478.119
485.937
492.036
496.07
498.68
500.11
500.502
500.255
499.653
499.27
499.256
499.644
500.334
501.142
501.87
502.577
503.108
503.673
504.033
504.544
504.874
505.278
282.215
306.879
295.052
276.136
270.348
273.323
281.8
291.369
298.372
303.439
306.08
307.698
307.186
305.208
300.746
292.581
279.942
259.07
242.213
327.617
471.096
508.435
445.578
412.3
397.733
445.56
186.505
191.582
218.12
303.652
333.904
453.023
500.506
476.559
495.314
250.191
282.757
427.184
542.322
584.779
524.602
497.987
467.67
358.773
295.949
345.602
423.955
477.359
532.026
543.245
494.595
418.144
388.921
393.194
411.205
426.643
433.468
439.858
449.713
459.378
467.255
472.474
474.399
473.846
472.201
472.261
475.63
481.967
489.181
494.702
497.852
499.503
500.141
500.013
499.397
498.726
498.398
498.471
498.99
499.758
500.62
501.377
502.101
502.641
503.217
503.583
504.11
504.441
504.862
282.213
306.883
295.058
276.108
270.246
273.189
281.62
291.161
298.081
303.084
305.61
307.035
306.392
304.155
299.265
290.541
276.96
254.331
237.1
330.108
465.024
489.933
409.477
379.58
370.589
398.803
188.014
194.516
245.02
313.93
332.564
474.63
503.574
473.629
473.166
271.985
294.916
465.273
562.917
587.75
509.086
480.934
453.716
324.104
190.843
225.404
310.657
439.557
526.921
558.343
514.274
434.717
394.752
393.595
408.747
423.412
431.274
440.022
451.001
461.702
470.522
476.935
480.119
480.318
478.986
478.637
481.067
486.261
492.201
496.778
499.15
499.818
499.599
498.701
497.723
497.054
496.881
497.148
497.912
498.812
499.761
500.563
501.315
501.87
502.465
502.846
503.396
503.74
504.177
282.216
306.858
295.027
276.052
270.1
273.006
281.378
290.881
297.703
302.609
304.996
306.172
305.354
302.783
297.338
287.92
273.179
248.491
230.491
331.032
455.749
472.415
384.324
350.076
336.717
338.738
201.37
205.418
224.598
292.88
347.265
480.804
495.841
462.313
461.629
297.449
353.992
516.914
580.182
581.193
493.523
463.568
430.112
304.994
178.614
186.247
216.891
301.71
480.087
550.433
515.932
438.713
397.675
392.939
405.129
416.569
426.146
438.447
452.311
464.404
473.968
481.464
486.196
487.564
486.705
485.674
486.346
489.32
493.823
496.961
497.992
497.755
496.681
495.337
494.398
494.057
494.265
495.064
496.196
497.315
498.392
499.259
500.053
500.637
501.268
501.677
502.27
502.632
503.108
282.222
306.829
294.983
275.976
269.929
272.794
281.097
290.537
297.253
302.023
304.254
305.13
304.098
301.129
295.04
284.851
268.895
242.102
222.105
324.832
440.69
451.436
357.016
319.833
299.587
294.885
205.396
219.464
218.949
209.62
365.873
464.337
476.336
448.541
459.227
303.455
402.473
557.039
601.564
554.876
474.044
444.475
412.374
306.21
199.778
210.499
216.512
231.874
305.23
474.385
491.327
426.311
390.163
387.203
394.143
401.899
415.71
436.544
454.838
468.626
478.696
486.485
491.872
493.316
492.311
490.312
489.542
490.59
492.387
492.976
492.695
491.711
490.386
489.402
489.093
489.409
490.517
492.064
493.675
495.099
496.352
497.313
498.174
498.811
499.507
499.966
500.629
501.019
501.561
282.232
306.793
294.919
275.861
269.707
272.523
280.741
290.073
296.669
301.23
303.271
303.746
302.43
298.925
292.061
280.921
263.706
234.814
210.568
309.518
425.99
437.784
341.889
303.66
277.257
263.5
167.635
201.067
200.498
289.321
429.654
417.36
433.953
414.861
440.964
292.568
414.512
568.294
604.355
522.906
446.193
420.705
411.892
342.162
191.818
202.183
188.706
269.328
300.853
318.37
370.918
359.365
342.38
347.934
349.46
365.241
398.791
434.494
461.185
477.094
486.613
493.199
496.068
496.417
494.747
491.738
489.643
487.912
485.129
482.266
480.115
478.923
478.667
479.156
480.505
482.449
484.789
487.123
489.329
491.166
492.701
493.854
494.877
495.647
496.48
497.043
497.84
498.274
498.957
282.244
306.769
294.869
275.726
269.507
272.28
280.43
289.636
296.134
300.482
302.357
302.455
300.879
296.865
289.38
277.451
259.51
230.099
199.422
280.289
412.794
436.181
350.034
309.765
284.486
273.073
141.512
163.134
267.053
460.52
496.826
364.284
373.489
374.653
406.341
271.812
388.002
559.878
599.16
518.633
453.354
432.263
428.868
385.258
192.878
191.644
201.075
311.817
369.194
380.893
336.784
320.499
308.828
294.123
300.169
334.128
390.729
440.587
472.956
490.14
497.01
497.851
496.645
492.575
487.334
482.905
479.536
475.542
470.282
466.267
464.43
464.556
466.393
469.234
472.421
475.518
478.57
481.408
484.007
486.18
488.028
489.454
490.723
491.698
492.721
493.423
494.401
494.885
495.77
282.256
306.754
294.835
275.618
269.378
272.126
280.23
289.348
295.765
299.984
301.727
301.619
299.833
295.489
287.593
275.254
256.985
228.244
194.247
247.753
399.211
438.467
368.776
325.883
306.641
303.083
149.991
238.667
399.354
513.678
513.267
345.94
304.953
341.226
370.143
276.14
374.922
553.449
595.448
520.608
468.74
456.959
454.031
417.428
201.615
199.718
177.452
271.492
337.652
373.436
366.992
313.319
293.159
264.605
272.402
324.518
390.81
445.384
480.964
498.033
501.456
497.423
486.917
476.391
468.084
463.223
460.584
458.017
455.04
453.564
453.794
455.883
459.282
463.127
466.931
470.419
473.736
476.792
479.619
482.031
484.133
485.795
487.277
488.426
489.609
490.429
491.559
492.081
493.15
282.266
306.745
294.798
275.53
269.278
272.015
280.077
289.138
295.475
299.616
301.217
301.014
299.035
294.446
286.204
273.663
255.151
227.333
192.847
218.03
378.281
440.404
396.022
357.685
345.334
343.973
260.186
375.812
450.668
524.064
494.331
346.654
254.123
319.145
346.774
295.419
377.472
547.74
592.544
525.931
483.17
475.156
489.326
461.668
212.535
212.053
196.495
280.237
325.574
355.401
360.155
304.277
274.354
243.588
260.119
320.621
388.574
444.785
481.766
498.816
499.516
488.817
471.384
456.402
446.454
442.373
441.655
442.085
442.919
444.472
447.096
450.587
454.582
458.602
462.482
466.089
469.534
472.742
475.764
478.386
480.709
482.573
484.242
485.544
486.868
487.793
489.059
489.625
490.85
282.275
306.72
294.745
275.465
269.195
271.928
279.953
288.986
295.259
299.353
300.846
300.575
298.463
293.69
285.217
272.52
253.898
226.854
192.94
198.196
356.119
440.1
426.65
381.657
366.669
409.051
424.389
446.76
463.305
512.66
468.157
345.002
218.629
303.334
331.373
323.094
382.431
543.844
591.082
534.863
497.652
490.718
508.666
484.851
222.47
217.097
219.557
289.61
326.099
349.509
353.102
298.837
263.107
233.568
255.529
317.131
383.408
438.423
475.413
490.819
489.59
475.407
455.435
439.27
429.927
427.474
428.817
432.373
436.077
439.715
443.51
447.444
451.416
455.254
459.018
462.618
466.153
469.486
472.666
475.456
477.948
479.965
481.776
483.195
484.632
485.643
487.021
487.623
488.983
282.275
306.716
294.733
275.448
269.144
271.868
279.867
288.887
295.121
299.185
300.605
300.29
298.093
293.199
284.601
271.782
253.128
226.521
194.011
184.926
337.796
438.337
441.858
407.16
393.382
433.677
471.964
349.608
310.126
301.339
296.579
302.148
322.321
371.071
408.797
460.854
454.004
459.51
497.749
453.795
345.358
212.934
262.523
309.676
291.761
291.347
304.212
297.754
232.732
121.449
90.2157
97.1322
128.462
214.231
335.031
387.308
540.916
589.644
542.586
506.187
499.284
529.871
516.087
404.484
215.873
196.353
225.198
236.708
194.035
175.69
166.467
175.63
227.39
216.086
230.777
293.24
329.254
348.725
349.123
296.893
258.365
229.84
253.314
312.586
375.822
428.735
464.372
478.728
476.877
462.209
443.02
428.239
420.716
419.6
422.363
427.556
432.656
437.266
441.53
445.533
449.354
452.999
456.63
460.193
463.787
467.223
470.521
473.428
476.033
478.155
480.061
481.562
483.077
484.149
485.604
486.238
487.686
282.27
306.726
294.741
275.444
269.071
271.776
279.738
288.742
294.922
298.942
300.255
299.874
297.56
292.484
283.718
270.709
252.011
226.021
196.149
174.275
284.268
430.146
472.361
441.262
429.036
453.393
485.772
462.64
461.295
460.617
467.236
476.067
492.52
495.298
490.937
480.815
423.476
450.986
483.617
433.806
347.876
268.085
221.205
243.917
270.755
287.663
310.436
313.48
282.793
183.233
112.928
123.105
137.579
241.966
335.499
379.855
528.63
581.794
556.159
523.373
517.918
547.26
544.547
463.519
256.022
240.752
268.425
262.981
223.053
206.853
179.94
209.118
224.09
200.522
245.827
295.282
333.176
352.74
346.71
297.263
258.447
229.854
249.227
301.043
357.592
405.902
438.601
451.785
450.256
437.537
422.694
412.581
409.748
411.736
417.083
423.408
429.356
434.557
439.004
442.825
446.29
449.569
452.938
456.402
460.063
463.672
467.177
470.273
473.057
475.336
477.391
479.017
480.655
481.825
483.396
484.089
485.669
282.27
306.708
294.719
275.419
268.97
271.65
279.57
288.551
294.67
298.633
299.813
299.349
296.888
291.575
282.603
269.336
250.574
225.278
198.644
176.069
206.826
384.18
470.023
500.259
520.135
532.901
549.385
569.632
573.21
581.83
595.605
592.794
573.575
524.256
460.894
383.773
382.557
448.396
454.671
420.182
383.812
378.899
360.833
332.322
319.991
297.654
297.436
290.352
236.916
148.51
127.805
137.875
142.077
221.458
312.729
332.88
486.364
570.891
591.58
549.965
541.691
585.769
584.84
535.135
324.252
248.252
279.822
281.62
255.514
239.237
209.935
199.19
196.798
193.323
263.246
300.974
343.076
363.413
351.167
300.745
259.809
227.561
233.196
267.396
311.696
351.259
381.492
396.836
400.892
399.768
398.016
398.725
401.95
407.963
415.065
421.996
427.929
432.685
436.446
439.493
442.222
444.885
447.84
451.118
454.814
458.607
462.388
465.774
468.833
471.342
473.607
475.412
477.227
478.539
480.284
481.062
482.835
282.274
306.685
294.689
275.377
268.863
271.509
279.388
288.324
294.38
298.27
299.299
298.743
296.107
290.535
281.293
267.742
248.801
223.96
199.722
185.858
173.766
244.825
383.455
457.449
502.866
530.48
555.309
589.874
626.54
634.862
605.73
519.682
415.099
335.846
311.826
322.86
393.177
449.035
430.917
417.781
497.821
538.211
530.21
505.473
469.688
368.647
243.618
189.496
162.196
148.494
143.69
169.744
173.268
183.107
214.619
226.29
346.219
521.351
586.097
585.683
583.312
603.094
583.494
526.569
307.165
264.127
299.439
304.059
275.905
252.479
214.984
200.118
204.46
243.984
293.443
328.899
366.834
384.45
372.061
313.713
262.258
209.302
176.255
200.974
251.605
294.985
326.842
349.668
365.847
377.622
386.756
394.774
402.295
409.635
416.806
423.171
428.136
431.57
433.87
435.541
437.132
438.96
441.404
444.447
448.138
452.091
456.147
459.838
463.211
466.006
468.56
470.615
472.698
474.207
476.218
477.11
479.151
282.281
306.658
294.653
275.304
268.743
271.344
279.182
288.037
294.031
297.814
298.674
297.99
295.142
289.231
279.673
265.657
246.28
220.957
199.08
191.392
185.511
221.62
320.17
383.249
422.607
460.749
485.662
521.044
556.92
578.137
566.434
524.096
466.306
410.413
359.487
361.161
401.681
402.95
410.041
522.3
638.242
630.075
624.903
613.848
585.132
450.17
282.458
271.769
260.676
258.844
265.769
271.952
269.063
264.622
260.869
250.726
247.885
311.92
496.508
549.581
556.361
555.462
523.439
451.735
268.407
262.231
286.05
279.659
252.479
244.995
244.345
269.922
299.984
335.803
365.482
380.594
387.411
383.247
365.183
299.474
246.991
222.957
234.868
282.67
317.586