/*--------------------------------*- C++ -*----------------------------------*\
| =========                 |                                                 |
| \\      /  F ield         | OpenFOAM: The Open Source CFD Toolbox           |
|  \\    /   O peration     | Version:  v2006                                 |
|   \\  /    A nd           | Website:  www.openfoam.com                      |
|    \\/     M anipulation  |                                                 |
\*---------------------------------------------------------------------------*/
FoamFile
{
    version     2.0;
    format      ascii;
    class       volScalarField;
    location    "0.59";
    object      p;
}
// * * * * * * * * * * * * * * * * * * * * * * * * * * * * * * * * * * * * * //

dimensions      [0 2 -2 0 0 0 0];


internalField   nonuniform List<scalar> 
374400
(
0.14743
0.0747395
-0.0096351
-0.0408403
-0.0422408
-0.0399003
-0.0422822
-0.0500378
-0.0617893
-0.0760467
-0.0917644
-0.108199
-0.124744
-0.141419
-0.158002
-0.174038
-0.189304
-0.203779
-0.217044
-0.228603
-0.23773
-0.244447
-0.249528
-0.253059
-0.255836
-0.257874
-0.25922
-0.261223
-0.263832
-0.26701
-0.271267
-0.275243
-0.277921
-0.279969
-0.281439
-0.282392
-0.283789
-0.285572
-0.287686
-0.290419
-0.292856
-0.29443
-0.295589
-0.296379
-0.296877
-0.297591
-0.298451
-0.299394
-0.300125
-0.300584
-0.30102
-0.301242
-0.301289
-0.301219
-0.301144
-0.301
-0.300698
-0.300173
-0.299122
-0.29762
-0.296277
-0.295074
-0.294072
-0.293378
-0.292299
-0.290726
-0.288595
-0.285245
-0.281399
-0.278374
-0.275816
-0.273786
-0.272408
-0.270299
-0.267343
-0.263485
-0.257725
-0.248829
-0.235017
-0.215114
-0.189319
-0.158811
-0.123942
-0.0858948
-0.0485477
-0.0155082
0.0122436
0.034655
0.0521306
0.0653614
0.0750692
0.0818869
0.0863479
0.0888843
0.0898438
0.0895157
0.0881413
0.085937
0.0830826
0.0797278
0.0759944
0.0719773
0.0677506
0.0633716
0.0588861
0.0543291
0.0497249
0.045089
0.040431
0.0357537
0.0310589
0.0263451
0.0216161
0.0168614
0.0120958
0.0073855
0.000865805
0.150124
0.0774623
-0.0068827
-0.0380644
-0.0394282
-0.0370425
-0.0393757
-0.0470911
-0.0588182
-0.0730727
-0.0888174
-0.105325
-0.121977
-0.138837
-0.155674
-0.172045
-0.187734
-0.202718
-0.216545
-0.228659
-0.238262
-0.24535
-0.250725
-0.254468
-0.257415
-0.259581
-0.261013
-0.263144
-0.265924
-0.269315
-0.273869
-0.278134
-0.281012
-0.283221
-0.284811
-0.285843
-0.287357
-0.289293
-0.291593
-0.294574
-0.297246
-0.298978
-0.300258
-0.301134
-0.301687
-0.302482
-0.303448
-0.304513
-0.305356
-0.305897
-0.306429
-0.306737
-0.306843
-0.306813
-0.306762
-0.306651
-0.306389
-0.305904
-0.304896
-0.303414
-0.302072
-0.30086
-0.299846
-0.299141
-0.298042
-0.29644
-0.294264
-0.290839
-0.2869
-0.283796
-0.281165
-0.279077
-0.277657
-0.275484
-0.272439
-0.268465
-0.262533
-0.253373
-0.239162
-0.218703
-0.19222
-0.160943
-0.125259
-0.086401
-0.0483407
-0.0147378
0.0134275
0.0361061
0.0537203
0.0669861
0.0766544
0.08338
0.0877171
0.0901152
0.0909307
0.0904582
0.0889533
0.0866257
0.0836593
0.080205
0.0763835
0.0722895
0.0679972
0.0635642
0.0590352
0.0544438
0.0498128
0.0451561
0.0404822
0.0357943
0.0310913
0.0263705
0.0216366
0.0168784
0.0121075
0.00739237
0.000865128
0.155555
0.0829101
-0.00139692
-0.0325094
-0.0337857
-0.0313003
-0.0335295
-0.0411502
-0.052807
-0.0670305
-0.0828056
-0.0994445
-0.11629
-0.133503
-0.150844
-0.167884
-0.184418
-0.200434
-0.215415
-0.228675
-0.239268
-0.247128
-0.253115
-0.257301
-0.260605
-0.263039
-0.26465
-0.26705
-0.270189
-0.274027
-0.279199
-0.284067
-0.287367
-0.289911
-0.291751
-0.292946
-0.294703
-0.296955
-0.299638
-0.303136
-0.306286
-0.308337
-0.30986
-0.310911
-0.311579
-0.312542
-0.313719
-0.315032
-0.316095
-0.316798
-0.317515
-0.31798
-0.318198
-0.318242
-0.318238
-0.318194
-0.318005
-0.317593
-0.316644
-0.315164
-0.313797
-0.312555
-0.31151
-0.310783
-0.309648
-0.307978
-0.305699
-0.302095
-0.297926
-0.294639
-0.291858
-0.289652
-0.288153
-0.285861
-0.282642
-0.27844
-0.272164
-0.26247
-0.247432
-0.225804
-0.197863
-0.164965
-0.127585
-0.0870746
-0.0476057
-0.0129323
0.0159915
0.0391477
0.0570084
0.0703167
0.0798998
0.0864396
0.090533
0.0926574
0.0931869
0.0924316
0.0906507
0.0880648
0.0848624
0.0811982
0.0771941
0.0729423
0.0685141
0.0639675
0.0593473
0.054683
0.049996
0.0452979
0.0405937
0.0358831
0.0311637
0.0264302
0.0216848
0.0169158
0.0121359
0.00741279
0.000870981
0.163685
0.091071
0.00683912
-0.0241469
-0.0252658
-0.0225962
-0.0246253
-0.0320531
-0.043547
-0.0576622
-0.0734085
-0.0900815
-0.107242
-0.124939
-0.143007
-0.161051
-0.178833
-0.196433
-0.213227
-0.228319
-0.240517
-0.249636
-0.256627
-0.261539
-0.265427
-0.268303
-0.270207
-0.273048
-0.276776
-0.281349
-0.287545
-0.293414
-0.297422
-0.300529
-0.302782
-0.304249
-0.306408
-0.309188
-0.312516
-0.31688
-0.320842
-0.323435
-0.32537
-0.326716
-0.327574
-0.328814
-0.330345
-0.332076
-0.333517
-0.334497
-0.335531
-0.336276
-0.336691
-0.336861
-0.336934
-0.336994
-0.336929
-0.336645
-0.33582
-0.334391
-0.333008
-0.331719
-0.330619
-0.329846
-0.328631
-0.326843
-0.324394
-0.320505
-0.315998
-0.312422
-0.309378
-0.306957
-0.305307
-0.302777
-0.299236
-0.294612
-0.287714
-0.277078
-0.260628
-0.237048
-0.206709
-0.171161
-0.131036
-0.087887
-0.0462108
-0.00989852
0.0201495
0.0439747
0.0621187
0.0754621
0.0848467
0.0910568
0.0947401
0.0964147
0.0964886
0.0952869
0.0930886
0.0901212
0.0865739
0.0826033
0.0783315
0.0738496
0.0692278
0.0645225
0.0597737
0.0550043
0.0502434
0.0454907
0.0407457
0.0360054
0.0312635
0.0265126
0.0217531
0.016972
0.012178
0.00743963
0.000879718
0.174491
0.101932
0.0178237
-0.0129607
-0.01382
-0.0108383
-0.0125186
-0.019593
-0.0307614
-0.0446096
-0.060185
-0.0768049
-0.0942375
-0.112404
-0.131287
-0.150459
-0.170059
-0.189898
-0.209273
-0.227019
-0.241568
-0.252546
-0.261025
-0.267017
-0.271776
-0.275312
-0.277655
-0.281155
-0.285767
-0.291443
-0.299168
-0.306535
-0.311603
-0.315548
-0.318416
-0.320288
-0.323048
-0.32661
-0.330889
-0.336527
-0.341667
-0.345039
-0.347568
-0.349341
-0.350476
-0.352121
-0.354158
-0.356478
-0.358437
-0.359793
-0.361256
-0.362358
-0.363024
-0.363358
-0.363534
-0.363741
-0.363828
-0.363683
-0.362945
-0.361453
-0.35996
-0.358562
-0.35736
-0.356519
-0.355193
-0.353209
-0.350471
-0.346084
-0.340947
-0.336882
-0.333445
-0.330721
-0.328873
-0.326044
-0.322063
-0.316865
-0.309105
-0.297136
-0.278627
-0.252168
-0.218278
-0.178845
-0.134756
-0.087899
-0.0432323
-0.00479529
0.0266364
0.0512244
0.0696403
0.0828744
0.0919019
0.0975898
0.100666
0.101699
0.10112
0.0992908
0.096496
0.09298
0.0889392
0.0845319
0.0798806
0.075075
0.0701827
0.0652561
0.0603318
0.0554332
0.0505667
0.0457348
0.0409361
0.0361585
0.031391
0.0266207
0.0218434
0.0170444
0.012232
0.00747605
0.000891641
0.187911
0.115439
0.0315212
0.00104338
0.000587561
0.00406613
0.00295709
-0.00351434
-0.0140917
-0.0273996
-0.0425373
-0.0589118
-0.0763529
-0.0948488
-0.114529
-0.135284
-0.156881
-0.179546
-0.202384
-0.223814
-0.24171
-0.255371
-0.266015
-0.273588
-0.279625
-0.284132
-0.287121
-0.291592
-0.297509
-0.304814
-0.314806
-0.324434
-0.331096
-0.336288
-0.340071
-0.342544
-0.346197
-0.350932
-0.35664
-0.364196
-0.371117
-0.375677
-0.379109
-0.381525
-0.383073
-0.38532
-0.388127
-0.391351
-0.394123
-0.396051
-0.398167
-0.399844
-0.400907
-0.401488
-0.401808
-0.402209
-0.402526
-0.402608
-0.402073
-0.400634
-0.399056
-0.397508
-0.396148
-0.395177
-0.393634
-0.391346
-0.38818
-0.383112
-0.377194
-0.372465
-0.368414
-0.365185
-0.362978
-0.359589
-0.354861
-0.348692
-0.339508
-0.3254
-0.303735
-0.272984
-0.233898
-0.188824
-0.139057
-0.0870311
-0.0383454
0.00282456
0.035903
0.0612757
0.0798144
0.0927093
0.101099
0.105967
0.108148
0.108268
0.106804
0.104137
0.100578
0.0963701
0.0917129
0.0867677
0.0816555
0.0764609
0.0712462
0.0660592
0.0609305
0.0558771
0.0508947
0.0459867
0.0411384
0.0363289
0.0315396
0.0267515
0.0219561
0.0171373
0.0123033
0.00752221
0.000909223
0.203827
0.131484
0.0478455
0.0178153
0.0179592
0.0221881
0.0219591
0.0164521
0.00687491
-0.00544685
-0.0196767
-0.0353266
-0.0523741
-0.0707875
-0.0910849
-0.113192
-0.137064
-0.163243
-0.190606
-0.217036
-0.239599
-0.257067
-0.270817
-0.280665
-0.288548
-0.294457
-0.298384
-0.304268
-0.312077
-0.321741
-0.335046
-0.347963
-0.35691
-0.363891
-0.368991
-0.372331
-0.377271
-0.383681
-0.391418
-0.401669
-0.411068
-0.417244
-0.421895
-0.425177
-0.427285
-0.430346
-0.434158
-0.438532
-0.442286
-0.444944
-0.44787
-0.450179
-0.451669
-0.452514
-0.453
-0.453629
-0.454142
-0.454362
-0.453779
-0.451949
-0.449959
-0.448057
-0.4464
-0.445238
-0.443394
-0.440589
-0.436692
-0.430402
-0.422988
-0.417137
-0.412218
-0.408338
-0.405714
-0.401699
-0.396037
-0.388653
-0.377655
-0.360754
-0.334787
-0.298045
-0.251665
-0.198785
-0.141405
-0.0827856
-0.0293017
0.0148588
0.0495112
0.0753925
0.0937035
0.105842
0.113172
0.116835
0.117766
0.116661
0.114028
0.110266
0.105699
0.100582
0.095122
0.0894823
0.0837764
0.0780863
0.0724661
0.0669525
0.0615661
0.0563219
0.0512157
0.0462304
0.0413369
0.0365035
0.0317
0.0268987
0.0220871
0.0172458
0.0123858
0.00757404
0.000931232
0.222031
0.149871
0.0666248
0.0372184
0.0382107
0.0435254
0.0445993
0.0405559
0.0325554
0.0218787
0.00929833
-0.00480077
-0.0204769
-0.038228
-0.0583879
-0.0813457
-0.10755
-0.137611
-0.170664
-0.203802
-0.232931
-0.255896
-0.274194
-0.287398
-0.298016
-0.306001
-0.311318
-0.319297
-0.329922
-0.343152
-0.361479
-0.37932
-0.391682
-0.401335
-0.408396
-0.413026
-0.419881
-0.428794
-0.439565
-0.453866
-0.467
-0.475626
-0.482128
-0.48673
-0.489684
-0.493971
-0.499339
-0.505525
-0.510887
-0.514676
-0.518847
-0.522228
-0.524434
-0.525705
-0.526424
-0.52735
-0.528205
-0.528716
-0.52829
-0.526322
-0.52399
-0.521634
-0.519539
-0.518028
-0.515613
-0.512059
-0.50715
-0.499333
-0.490283
-0.483041
-0.476803
-0.471826
-0.468407
-0.463153
-0.45588
-0.446407
-0.432366
-0.410924
-0.378325
-0.332598
-0.275375
-0.210895
-0.142529
-0.0749013
-0.0153035
0.0322398
0.0682854
0.0941862
0.111646
0.122411
0.128098
0.130041
0.129286
0.126555
0.122404
0.117272
0.111459
0.105239
0.0988151
0.0923719
0.0859864
0.0797371
0.0736629
0.0677879
0.0621301
0.0566951
0.0514753
0.0464335
0.0415194
0.036684
0.031884
0.0270805
0.0222557
0.0173886
0.0124972
0.00763877
0.000967949
0.242205
0.170293
0.0875727
0.0590051
0.0611538
0.0679621
0.0708616
0.0689332
0.0632955
0.0551939
0.0453471
0.0340277
0.0209928
0.00553781
-0.0132596
-0.0358167
-0.0634717
-0.097563
-0.137288
-0.179265
-0.217625
-0.248589
-0.273632
-0.291859
-0.306601
-0.317743
-0.325186
-0.336386
-0.351355
-0.370021
-0.39594
-0.421222
-0.438712
-0.452342
-0.462292
-0.468811
-0.478458
-0.490986
-0.506096
-0.526083
-0.544314
-0.55619
-0.565111
-0.571407
-0.575445
-0.581294
-0.588567
-0.596892
-0.604007
-0.608997
-0.614491
-0.618781
-0.621503
-0.62302
-0.623885
-0.624981
-0.625808
-0.626031
-0.624645
-0.620968
-0.617197
-0.613701
-0.610726
-0.608666
-0.605417
-0.600485
-0.593702
-0.582894
-0.570357
-0.560656
-0.55263
-0.546363
-0.54216
-0.535753
-0.526682
-0.514877
-0.497345
-0.470468
-0.429292
-0.371381
-0.299163
-0.21892
-0.13635
-0.0580252
0.0080049
0.0584362
0.0949522
0.119856
0.135381
0.143736
0.146902
0.146362
0.143312
0.138477
0.132419
0.125542
0.118171
0.110581
0.102993
0.0955579
0.0883526
0.0814356
0.07482
0.0685213
0.0625533
0.0569191
0.0515987
0.0465311
0.041636
0.0368367
0.0320675
0.0272782
0.0224494
0.0175577
0.0126305
0.00770524
0.00101694
0.263107
0.1915
0.109426
0.0818982
0.0854869
0.0941922
0.0994582
0.100333
0.0979301
0.0935003
0.0877499
0.0808779
0.0724725
0.0615648
0.0469011
0.0271583
0.00028318
-0.0362724
-0.0831253
-0.136152
-0.187276
-0.229921
-0.265172
-0.291174
-0.312308
-0.328349
-0.339068
-0.355208
-0.376828
-0.403788
-0.441119
-0.477289
-0.502117
-0.521412
-0.535471
-0.544699
-0.558384
-0.576062
-0.597304
-0.625253
-0.650672
-0.667391
-0.680051
-0.689057
-0.694867
-0.703316
-0.713866
-0.726022
-0.736513
-0.743866
-0.751893
-0.758121
-0.761989
-0.764057
-0.765132
-0.766383
-0.767258
-0.767187
-0.764814
-0.759635
-0.754381
-0.749361
-0.745091
-0.74205
-0.737244
-0.730436
-0.721342
-0.707473
-0.692216
-0.680253
-0.669924
-0.661653
-0.655922
-0.64711
-0.63505
-0.619325
-0.595962
-0.560135
-0.505389
-0.428206
-0.331683
-0.226094
-0.1222
-0.0297817
0.0428599
0.0947508
0.129859
0.151897
0.16407
0.168867
0.168817
0.165279
0.159398
0.151993
0.14357
0.13457
0.125329
0.116134
0.107198
0.0986646
0.0905761
0.0829367
0.0757315
0.0689847
0.0627105
0.0569156
0.0515526
0.0465272
0.0417206
0.0370117
0.0323084
0.027551
0.0227238
0.0177979
0.0128198
0.00779066
0.00110707
0.283192
0.211924
0.130564
0.10419
0.109404
0.120273
0.128272
0.132464
0.133995
0.134192
0.133833
0.133127
0.131603
0.128125
0.121077
0.108284
0.0865686
0.0513725
-0.000590001
-0.0656594
-0.133429
-0.192724
-0.243239
-0.281208
-0.312389
-0.336229
-0.352234
-0.376378
-0.408687
-0.448934
-0.504631
-0.558239
-0.594331
-0.621855
-0.641603
-0.654362
-0.673077
-0.697115
-0.725821
-0.763169
-0.796788
-0.818537
-0.835003
-0.846755
-0.854331
-0.86532
-0.878974
-0.894616
-0.90767
-0.9166
-0.925948
-0.932146
-0.935623
-0.937082
-0.937835
-0.938569
-0.937825
-0.935067
-0.927621
-0.915769
-0.905646
-0.897113
-0.890337
-0.885828
-0.87889
-0.868628
-0.855091
-0.834631
-0.812316
-0.796033
-0.783112
-0.773285
-0.766856
-0.757194
-0.743279
-0.725169
-0.69801
-0.655273
-0.586999
-0.48727
-0.360069
-0.223011
-0.0945809
0.0126614
0.090972
0.142503
0.174022
0.191046
0.197756
0.197687
0.193075
0.185632
0.176307
0.165933
0.154931
0.14366
0.13241
0.121475
0.111107
0.101426
0.0924377
0.0840706
0.0762788
0.0690686
0.062488
0.0565624
0.0512251
0.0463305
0.0416961
0.037146
0.0325605
0.0278647
0.0230482
0.0180834
0.0130483
0.00788806
0.00122341
0.301801
0.230889
0.150259
0.125096
0.132028
0.145193
0.156142
0.163975
0.169932
0.175489
0.181598
0.188607
0.196213
0.203307
0.208123
0.207924
0.198127
0.171497
0.119979
0.043975
-0.0455012
-0.129862
-0.204841
-0.261972
-0.308714
-0.344147
-0.367574
-0.402827
-0.450553
-0.509413
-0.589462
-0.663201
-0.710859
-0.746689
-0.772426
-0.789293
-0.814047
-0.844993
-0.881492
-0.928354
-0.970908
-1.00093
-1.02489
-1.04256
-1.05419
-1.07138
-1.09346
-1.11954
-1.1423
-1.15762
-1.17352
-1.18467
-1.18981
-1.19096
-1.1906
-1.18888
-1.1849
-1.1767
-1.15986
-1.13814
-1.1212
-1.10703
-1.09607
-1.08848
-1.07677
-1.06165
-1.04344
-1.01926
-0.996997
-0.981288
-0.968048
-0.957392
-0.949725
-0.937744
-0.921613
-0.899925
-0.866211
-0.811513
-0.721671
-0.583987
-0.400948
-0.209297
-0.0446794
0.0781398
0.157275
0.202401
0.225328
0.234047
0.233978
0.228332
0.219221
0.207752
0.194857
0.181158
0.167224
0.153366
0.139781
0.126824
0.114856
0.103963
0.0940474
0.0849651
0.0765434
0.0688278
0.0619315
0.0559307
0.0507214
0.0460697
0.0417036
0.0373781
0.0329442
0.0283163
0.0235015
0.0184791
0.0133674
0.00804029
0.00138091
0.318466
0.2479
0.167975
0.144024
0.152668
0.168124
0.182057
0.1936
0.204193
0.215478
0.228699
0.24451
0.263026
0.283493
0.304544
0.323489
0.334773
0.328078
0.287943
0.206758
0.0936007
-0.0206442
-0.12515
-0.20614
-0.273924
-0.327063
-0.363028
-0.419105
-0.498999
-0.603255
-0.748453
-0.876701
-0.955429
-1.01048
-1.04577
-1.06752
-1.09741
-1.13053
-1.16417
-1.19979
-1.22704
-1.2462
-1.26315
-1.27745
-1.2876
-1.30331
-1.32442
-1.35102
-1.37328
-1.3861
-1.39661
-1.39777
-1.3935
-1.38738
-1.38286
-1.3761
-1.3651
-1.34884
-1.32165
-1.28985
-1.26787
-1.25081
-1.23826
-1.23033
-1.21818
-1.20175
-1.18322
-1.15392
-1.12166
-1.09787
-1.07993
-1.06732
-1.05939
-1.04883
-1.03476
-1.01551
-0.983849
-0.928184
-0.832158
-0.672998
-0.443913
-0.194714
0.0150545
0.159545
0.239229
0.275169
0.28594
0.283249
0.273354
0.259948
0.244963
0.228904
0.212182
0.195331
0.178762
0.162462
0.146556
0.131549
0.117984
0.105958
0.0952288
0.0855253
0.0764965
0.0682299
0.0609912
0.0549451
0.0499548
0.0456651
0.0416791
0.0376589
0.0334177
0.0288709
0.0240548
0.0189601
0.0137607
0.00824406
0.00156903
0.332177
0.261866
0.182551
0.159709
0.169893
0.187394
0.203978
0.218899
0.233773
0.25041
0.270437
0.2949
0.324457
0.359176
0.398639
0.441175
0.481817
0.508147
0.49485
0.417353
0.278139
0.121537
-0.0410998
-0.192471
-0.335467
-0.456846
-0.541572
-0.67043
-0.83433
-1.01529
-1.19672
-1.29874
-1.33841
-1.35962
-1.37061
-1.37496
-1.37857
-1.38169
-1.38318
-1.3855
-1.40039
-1.43473
-1.47999
-1.52785
-1.56213
-1.61382
-1.68394
-1.76787
-1.83085
-1.86673
-1.8952
-1.89427
-1.87565
-1.8517
-1.83321
-1.80163
-1.74885
-1.67385
-1.56403
-1.4696
-1.4355
-1.42226
-1.40847
-1.39493
-1.37438
-1.35506
-1.33985
-1.33673
-1.3353
-1.33352
-1.32917
-1.32313
-1.31795
-1.3094
-1.29886
-1.28479
-1.25343
-1.17764
-1.01795
-0.75197
-0.423788
-0.124606
0.10464
0.253684
0.327703
0.349729
0.344449
0.328329
0.308657
0.288436
0.26838
0.248585
0.228923
0.209586
0.190592
0.171832
0.153437
0.136129
0.120806
0.107711
0.0964098
0.0861142
0.0763314
0.0674606
0.0598674
0.053816
0.0491117
0.0452581
0.0417079
0.0380204
0.0339769
0.0295002
0.0246663
0.0194794
0.0141855
0.00846425
0.00178737
0.342329
0.272123
0.193258
0.171347
0.182759
0.201827
0.220451
0.238036
0.256302
0.277243
0.302729
0.334302
0.373054
0.419926
0.475787
0.540527
0.611434
0.67656
0.703626
0.64569
0.473967
0.221551
-0.101372
-0.407947
-0.653178
-0.818203
-0.920846
-1.05301
-1.16677
-1.26027
-1.37394
-1.44886
-1.46748
-1.48519
-1.50637
-1.52269
-1.54619
-1.55528
-1.53861
-1.46379
-1.37568
-1.37309
-1.40462
-1.45832
-1.5109
-1.61229
-1.79144
-2.04489
-2.24123
-2.34251
-2.42538
-2.45035
-2.4309
-2.3931
-2.36125
-2.30069
-2.18959
-2.02162
-1.76133
-1.54092
-1.41615
-1.32011
-1.24863
-1.20093
-1.13884
-1.10001
-1.10384
-1.16968
-1.26943
-1.35237
-1.41787
-1.46138
-1.48838
-1.52447
-1.55776
-1.5824
-1.58618
-1.54762
-1.3875
-1.00328
-0.507842
-0.090238
0.197473
0.360931
0.421929
0.423262
0.397069
0.365209
0.334953
0.30799
0.283756
0.261618
0.240899
0.220697
0.200275
0.179507
0.158882
0.139539
0.122765
0.10894
0.0972306
0.086561
0.0765039
0.0669744
0.0589057
0.052733
0.048242
0.0447872
0.0416523
0.0382847
0.0344313
0.0300217
0.0251744
0.0199029
0.0145346
0.00862517
0.00199594
0.349242
0.279036
0.200455
0.179278
0.191573
0.2117
0.231745
0.251218
0.271873
0.295888
0.325273
0.361912
0.407338
0.46301
0.530962
0.612547
0.707542
0.806194
0.875399
0.845054
0.637792
0.272497
-0.151091
-0.472872
-0.696181
-0.845837
-0.940299
-1.04667
-1.12989
-1.28477
-1.59195
-1.798
-1.87703
-1.91495
-1.92995
-1.93043
-1.91839
-1.87126
-1.76148
-1.50556
-1.26246
-1.26097
-1.41234
-1.65225
-1.84109
-2.13087
-2.45886
-2.7684
-2.93578
-2.97818
-2.96328
-2.89118
-2.81256
-2.73938
-2.68447
-2.58767
-2.411
-2.1517
-1.74573
-1.33013
-1.24201
-1.29951
-1.39228
-1.45526
-1.53475
-1.60038
-1.63724
-1.63186
-1.63007
-1.63931
-1.64829
-1.65246
-1.65406
-1.65691
-1.65702
-1.65096
-1.64338
-1.61375
-1.45163
-1.04032
-0.486654
-0.0146087
0.303023
0.46318
0.503244
0.481374
0.435937
0.390974
0.352089
0.31974
0.293033
0.270481
0.250135
0.229872
0.208566
0.186238
0.163828
0.143039
0.125385
0.111181
0.0993058
0.0883157
0.0774563
0.0671173
0.0584224
0.051954
0.0475117
0.0443184
0.0415005
0.0383966
0.0347114
0.0303708
0.0255256
0.0201896
0.0147746
0.00870181
0.00217694
0.353901
0.283653
0.205252
0.184629
0.197529
0.218362
0.239374
0.260157
0.282449
0.308579
0.340668
0.380789
0.430823
0.492589
0.56888
0.662169
0.774223
0.897574
1.00108
0.990629
0.765834
0.37466
0.0410472
-0.213726
-0.399752
-0.550457
-0.710402
-0.963505
-1.32694
-1.76567
-2.15204
-2.1974
-2.18552
-2.19553
-2.20858
-2.21137
-2.20156
-2.14752
-2.02238
-1.68099
-1.30324
-1.37475
-1.54891
-1.82694
-2.06783
-2.45154
-2.85224
-3.16518
-3.28199
-3.28255
-3.21953
-3.08759
-2.97075
-2.88763
-2.83354
-2.74135
-2.56652
-2.27603
-1.85342
-1.73046
-1.85934
-1.94442
-1.95562
-1.94409
-1.88218
-1.78228
-1.67384
-1.57711
-1.56374
-1.58738
-1.6186
-1.64434
-1.65881
-1.67772
-1.69578
-1.70862
-1.70416
-1.64108
-1.45138
-1.01969
-0.44008
0.0667238
0.397107
0.546114
0.564675
0.522779
0.462381
0.407835
0.36311
0.328008
0.300515
0.278006
0.257713
0.236911
0.214621
0.191289
0.168135
0.14694
0.129117
0.1147
0.102446
0.090559
0.0786341
0.0673057
0.057917
0.0511446
0.0467441
0.0437875
0.0412543
0.0383867
0.0348542
0.030581
0.0257468
0.0203641
0.0149236
0.00871505
0.00232281
0.357124
0.286824
0.208544
0.188335
0.201648
0.222971
0.244659
0.266362
0.289803
0.31741
0.351402
0.393964
0.447214
0.513238
0.595317
0.696712
0.82059
0.961524
1.08999
1.09512
0.866471
0.538256
0.335799
0.115135
-0.0911385
-0.324489
-0.700142
-1.37981
-2.06842
-2.39839
-2.52808
-2.36085
-2.26266
-2.2169
-2.20083
-2.19216
-2.18104
-2.14475
-2.06288
-1.71812
-1.37731
-1.42581
-1.65052
-2.05856
-2.41043
-2.87139
-3.26608
-3.54275
-3.56861
-3.467
-3.29048
-3.14569
-3.01715
-2.88897
-2.80497
-2.72446
-2.5848
-2.36601
-2.15908
-2.22044
-2.14693
-1.99573
-1.82859
-1.72612
-1.58973
-1.45324
-1.33077
-1.27797
-1.32565
-1.38836
-1.45776
-1.5099
-1.54424
-1.58057
-1.59287
-1.62403
-1.65909
-1.65693
-1.46083
-0.994475
-0.390861
0.136534
0.471176
0.60853
0.609672
0.551494
0.480433
0.419733
0.371842
0.335737
0.308124
0.285456
0.26459
0.242729
0.219251
0.195055
0.171547
0.150401
0.132674
0.118214
0.10543
0.0926563
0.0794638
0.0672179
0.0572734
0.0503129
0.0460016
0.0432735
0.0409909
0.038324
0.03492
0.0307046
0.0258831
0.0204668
0.0150133
0.00869456
0.00243703
0.359634
0.289295
0.211115
0.191232
0.20486
0.226572
0.248794
0.27122
0.295569
0.324335
0.359828
0.404311
0.460085
0.529443
0.616026
0.723696
0.856678
1.01133
1.15896
1.17811
0.959389
0.733307
0.701065
0.507159
0.23885
-0.656282
-1.53536
-2.19462
-2.74036
-2.63235
-2.50993
-2.35464
-2.27736
-2.23153
-2.21656
-2.21059
-2.20659
-2.1794
-2.10505
-1.79586
-1.48073
-1.52278
-1.81273
-2.43386
-2.87356
-3.16099
-3.46307
-3.46117
-3.42346
-3.37708
-3.2565
-3.10289
-2.97484
-2.8379
-2.71045
-2.63204
-2.55285
-2.48517
-2.53961
-2.42732
-2.0787
-1.69587
-1.46173
-1.35843
-1.3234
-1.34185
-1.29558
-1.3108
-1.40875
-1.51974
-1.62873
-1.73453
-1.80949
-1.84194
-1.81429
-1.8273
-1.83042
-1.74287
-1.47106
-0.965072
-0.343349
0.196098
0.531809
0.658531
0.644931
0.573858
0.494996
0.430064
0.380288
0.343763
0.315963
0.292769
0.27092
0.247816
0.223209
0.198288
0.174514
0.153457
0.135801
0.121234
0.107884
0.0941144
0.0799345
0.0669111
0.0565452
0.0494823
0.0452925
0.0427868
0.0407318
0.0382418
0.0349492
0.0307844
0.0259757
0.0205333
0.0150717
0.00865989
0.0025307
0.361461
0.291109
0.212991
0.193334
0.207199
0.229208
0.251824
0.274777
0.299796
0.329415
0.366012
0.41191
0.469533
0.541319
0.631162
0.743313
0.882718
1.04699
1.20791
1.23795
1.03758
0.910047
1.04922
1.03763
0.957139
-1.05558
-3.84719
-2.42373
-2.83521
-2.51214
-2.49855
-2.34465
-2.26601
-2.22638
-2.21261
-2.20212
-2.20714
-2.19288
-2.16456
-1.88596
-1.64824
-1.70706
-1.97105
-2.81628
-3.7273
-3.19981
-3.50439
-3.42752
-3.42086
-3.37086
-3.2526
-3.08973
-3.09818
-3.36983
-2.77767
-2.52461
-2.52926
-2.62531
-2.75949
-2.39452
-1.78351
-1.37105
-1.37604
-1.60036
-1.43406
-1.4604
-1.40511
-1.38563
-1.4526
-1.55909
-1.69769
-1.94124
-2.18935
-2.09056
-2.08841
-2.17263
-2.17896
-1.97428
-1.53829
-0.955088
-0.310103
0.238844
0.575433
0.69477
0.670383
0.590465
0.506604
0.439058
0.388253
0.351432
0.323212
0.299247
0.276267
0.251966
0.226412
0.200905
0.176965
0.155902
0.138236
0.123432
0.109548
0.09499
0.0800341
0.0664457
0.0558077
0.0487184
0.0446656
0.042362
0.0404995
0.0381537
0.0349506
0.0308267
0.0260294
0.020568
0.0151026
0.00861858
0.00259883
0.362644
0.292313
0.214252
0.194704
0.208727
0.230941
0.253819
0.27712
0.30258
0.332762
0.370085
0.416916
0.475755
0.549135
0.641104
0.756163
0.899691
1.07011
1.23945
1.2758
1.08893
1.03272
1.28527
1.46149
1.5897
0.404915
-2.18687
-2.21164
-2.19915
-2.21275
-1.9671
-1.80864
-1.85459
-2.0027
-2.52263
-2.55217
-2.44125
-2.51665
-2.72258
-2.85856
-2.30611
-1.55504
-1.1511
-1.21792
-2.46677
-2.13408
-2.19831
-2.36025
-2.42806
-2.18699
-1.62004
-0.962011
-0.293013
0.264855
0.603067
0.718198
0.686971
0.601562
0.514676
0.445559
0.394118
0.357025
0.32844
0.303851
0.279994
0.254822
0.228596
0.202675
0.178679
0.157528
0.139808
0.124795
0.110526
0.0954534
0.0799992
0.0660578
0.0552601
0.0481699
0.0442212
0.0420617
0.0403329
0.0380859
0.0349436
0.0308478
0.0260586
0.0205858
0.0151173
0.00858687
0.00264239
0.364365
0.294111
0.21616
0.196713
0.210971
0.233502
0.256777
0.28059
0.306705
0.337721
0.376122
0.424335
0.484973
0.560706
0.655797
0.775108
0.924609
1.10396
1.28564
1.33032
1.17207
1.22783
1.64357
2.06831
2.36878
2.05901
-2.18058
-2.22001
-2.22519
-2.30888
-2.12505
-2.03882
-2.03417
-2.0239
-2.18223
-2.41661
-2.39032
-2.5132
-2.84413
-2.89791
-2.09465
-1.20636
-0.847245
-0.968836
-2.14537
-2.16325
-2.31696
-2.55485
-2.7543
-2.54382
-1.79515
-0.995172
-0.275953
0.299656
0.642138
0.752153
0.711242
0.61844
0.527536
0.456369
0.404006
0.366385
0.337017
0.311285
0.285909
0.25937
0.232076
0.205778
0.181488
0.160087
0.142131
0.126693
0.111792
0.0959562
0.079795
0.0653649
0.0543606
0.0472922
0.0435178
0.0415874
0.0400659
0.0379701
0.0349207
0.0308685
0.026092
0.0206041
0.0151298
0.0085329
0.00270478
0.366581
0.29645
0.218632
0.199295
0.213863
0.236818
0.260613
0.28509
0.312058
0.344161
0.383962
0.433978
0.496934
0.575686
0.674737
0.799335
0.956086
1.14604
1.34281
1.39965
1.29005
1.47732
2.06718
2.69027
3.13469
3.06171
-2.209
-2.26806
-2.3128
-2.43238
-2.3136
-2.2401
-2.18209
-1.99049
-1.98979
-2.30238
-2.30825
-2.52287
-2.92679
-2.79683
-1.74234
-0.787916
-0.541771
-0.718242
-2.32252
-2.32868
-2.47135
-2.71397
-3.00743
-2.91565
-2.07581
-1.11239
-0.294176
0.325256
0.683843
0.792929
0.742733
0.642446
0.547447
0.474035
0.420304
0.381239
0.350122
0.322201
0.294515
0.265992
0.237523
0.210548
0.185881
0.163888
0.145185
0.128814
0.112836
0.0960006
0.0790424
0.064118
0.0529537
0.0459876
0.0424947
0.0408985
0.039665
0.037775
0.0348516
0.0308597
0.0261036
0.0205987
0.0151223
0.00843329
0.00278395
0.369256
0.299273
0.221625
0.202424
0.217358
0.240828
0.265262
0.290547
0.318553
0.35198
0.393481
0.445679
0.511438
0.593803
0.697523
0.828202
0.993013
1.19425
1.40716
1.48158
1.42832
1.73752
2.46826
3.21696
3.73886
3.75883
-2.27881
-2.33085
-2.39757
-2.47012
-2.40622
-2.3614
-2.25315
-1.90134
-1.79519
-2.15277
-2.19119
-2.52268
-2.93687
-2.55488
-1.29422
-0.362881
-0.322867
-0.566886
-2.37799
-2.44873
-2.61309
-2.84465
-3.17059
-3.17163
-2.37246
-1.31781
-0.380445
0.320057
0.718991
0.838034
0.780537
0.674459
0.576384
0.500492
0.444263
0.402288
0.36802
0.336793
0.305855
0.27478
0.2448
0.217183
0.191872
0.16887
0.148823
0.130974
0.113519
0.0954841
0.0777199
0.062342
0.0510672
0.0442824
0.0411691
0.0399937
0.0391153
0.0374773
0.0347092
0.0307949
0.02607
0.0205501
0.0150797
0.00826842
0.00288468
0.372827
0.302989
0.225557
0.206603
0.222013
0.246153
0.271447
0.297819
0.327214
0.362416
0.406184
0.461294
0.530749
0.617817
0.727456
0.865459
1.0392
1.25153
1.48097
1.5849
1.5758
1.94877
2.74695
3.55253
4.11203
4.15092
-2.33858
-2.3374
-2.34618
-2.36614
-2.35347
-2.26832
-2.10756
-1.64511
-1.4176
-1.85217
-1.92695
-2.32681
-2.73105
-2.21742
-0.962089
-0.173046
-0.394676
-0.652252
-2.41388
-2.51029
-2.61902
-2.80089
-3.16725
-3.20618
-2.53852
-1.57069
-0.575353
0.235439
0.71436
0.870809
0.818844
0.717898
0.622035
0.544327
0.483851
0.436341
0.396275
0.359274
0.32311
0.288231
0.256112
0.227263
0.200476
0.175569
0.153475
0.133484
0.113881
0.0942601
0.0755599
0.0597347
0.0484293
0.0419446
0.0393228
0.0386826
0.0382543
0.0369362
0.0343708
0.0305688
0.0259056
0.0203817
0.0149478
0.00793555
0.00304531
0.376169
0.306362
0.229094
0.210497
0.226343
0.251072
0.277157
0.304547
0.335237
0.372091
0.41796
0.475746
0.548579
0.639847
0.754565
0.898329
1.07785
1.29492
1.53182
1.66854
1.65162
1.93791
2.6653
3.45446
4.03911
4.0906
-2.29117
-2.2826
-2.28214
-2.31655
-2.15643
-1.88406
-1.70042
-1.2887
-0.921656
-1.47202
-1.58838
-1.94617
-2.36178
-1.9588
-0.890867
-0.305498
-0.773264
-0.97069
-2.49158
-2.54221
-2.56209
-2.65752
-2.86896
-2.87251
-2.39603
-1.59873
-0.678186
0.143174
0.661011
0.84565
0.835137
0.758073
0.669898
0.591056
0.52537
0.471301
0.424729
0.381439
0.339499
0.300245
0.265143
0.233857
0.204973
0.178598
0.155514
0.134915
0.114299
0.0938624
0.0744076
0.0581169
0.0465972
0.0401361
0.0377474
0.0374384
0.0373075
0.0362115
0.0338086
0.0301215
0.0255489
0.0200481
0.0146996
0.00743654
0.00323194
0.378418
0.308583
0.231414
0.213112
0.229241
0.254349
0.280963
0.309038
0.340597
0.378555
0.425827
0.485392
0.560453
0.654456
0.772384
0.91956
1.10184
1.31952
1.55595
1.71828
1.6934
1.83894
2.39776
3.07664
3.64077
3.65303
-2.38889
-2.34621
-2.31522
-2.25993
-1.93133
-1.48579
-1.37131
-1.13544
-0.728623
-1.27015
-1.412
-1.72848
-2.13002
-1.82971
-0.945067
-0.587843
-1.19435
-1.34763
-2.56247
-2.58867
-2.58333
-2.62711
-2.71769
-2.67162
-2.21827
-1.53315
-0.687909
0.0991573
0.620685
0.832721
0.848839
0.790269
0.706223
0.624864
0.554167
0.494856
0.443269
0.395064
0.348922
0.306626
0.269274
0.236169
0.206207
0.179542
0.156524
0.135978
0.115259
0.094438
0.0745064
0.0577328
0.045815
0.0391802
0.0367992
0.0366039
0.0366149
0.0356389
0.0333346
0.0297268
0.0252253
0.019748
0.0144778
0.00701228
0.00338006
0.380128
0.310265
0.233174
0.215108
0.231446
0.25684
0.283858
0.312458
0.34468
0.38348
0.431819
0.492735
0.569479
0.665536
0.785834
0.935437
1.11938
1.33656
1.56935
1.74738
1.73058
1.73984
2.08274
2.55611
2.99983
2.83642
-2.30868
-2.29816
-2.24972
-2.09704
-1.67747
-1.21983
-1.16853
-1.07621
-0.732094
-1.23507
-1.37725
-1.63653
-2.00323
-1.80137
-1.13518
-0.999673
-1.63276
-1.76743
-2.58705
-2.58519
-2.57764
-2.61254
-2.64181
-2.54477
-2.11329
-1.4737
-0.689343
0.0642754
0.590901
0.825138
0.863949
0.817028
0.73429
0.649524
0.574382
0.51087
0.455306
0.403562
0.354755
0.310708
0.272125
0.238042
0.20755
0.180703
0.157739
0.13711
0.11631
0.0951956
0.074874
0.0576638
0.0453919
0.0385574
0.03613
0.0359777
0.0360699
0.0351697
0.0329323
0.0293826
0.0249373
0.0194814
0.0142777
0.00664885
0.00349464
0.381339
0.311466
0.234418
0.216513
0.233008
0.258613
0.285917
0.314888
0.347581
0.38698
0.43608
0.497953
0.575886
0.673382
0.795322
0.946557
1.13146
1.3478
1.57661
1.75983
1.76711
1.68735
1.81303
1.99999
2.27797
1.17919
-2.81214
-2.19461
-2.03143
-1.85023
-1.45411
-1.13374
-1.09325