/*--------------------------------*- C++ -*----------------------------------*\
| =========                 |                                                 |
| \\      /  F ield         | OpenFOAM: The Open Source CFD Toolbox           |
|  \\    /   O peration     | Version:  v2006                                 |
|   \\  /    A nd           | Website:  www.openfoam.com                      |
|    \\/     M anipulation  |                                                 |
\*---------------------------------------------------------------------------*/
FoamFile
{
    version     2.0;
    format      ascii;
    class       volScalarField;
    location    "0.5";
    object      omega;
}
// * * * * * * * * * * * * * * * * * * * * * * * * * * * * * * * * * * * * * //

dimensions      [0 0 -1 0 0 0 0];


internalField   nonuniform List<scalar> 
374400
(
280.828
305.577
294.141
278.613
277.412
282.24
293.396
304.289
313.438
321.079
328.079
334.581
340.885
347.038
353.133
359.061
364.966
370.84
376.452
381.527
385.736
388.979
391.559
393.427
394.935
396.083
396.838
397.991
399.545
401.497
404.267
407.058
409.064
410.665
411.876
412.668
413.872
415.482
417.488
420.303
423.089
425.066
426.622
427.791
428.548
429.697
431.219
433.1
434.946
436.403
438.193
439.96
441.34
442.371
443.036
444.042
445.375
447.009
449.257
451.43
452.96
454.149
455.041
455.613
456.483
457.634
459.043
460.985
462.86
464.18
465.203
465.971
466.461
467.207
468.195
469.408
471.07
473.373
476.425
479.98
483.576
486.886
489.834
492.37
494.422
496.045
497.378
498.502
499.466
500.296
501.021
501.657
502.214
502.695
503.109
503.46
503.758
504.008
504.214
504.382
504.514
504.615
504.694
504.755
504.803
504.84
504.872
504.899
504.923
504.946
504.971
504.991
505.018
505.043
505.061
505.213
504.988
280.829
305.575
294.136
278.603
277.397
282.222
293.371
304.263
313.414
321.057
328.064
334.575
340.892
347.062
353.176
359.131
365.062
370.968
376.614
381.717
385.948
389.21
391.799
393.677
395.19
396.342
397.101
398.258
399.818
401.776
404.554
407.352
409.362
410.967
412.18
412.973
414.177
415.789
417.798
420.615
423.402
425.378
426.934
428.101
428.857
430.004
431.524
433.402
435.245
436.7
438.485
440.248
441.624
442.651
443.314
444.317
445.644
447.272
449.51
451.672
453.193
454.376
455.263
455.831
456.694
457.838
459.24
461.167
463.031
464.34
465.357
466.119
466.604
467.344
468.324
469.528
471.177
473.463
476.492
480.019
483.588
486.874
489.803
492.326
494.375
495.999
497.338
498.476
499.451
500.294
501.033
501.683
502.251
502.742
503.164
503.521
503.825
504.078
504.287
504.454
504.586
504.686
504.764
504.824
504.871
504.909
504.939
504.965
504.991
505.013
505.037
505.059
505.085
505.111
505.13
505.283
505.058
280.832
305.566
294.121
278.575
277.359
282.18
293.321
304.209
313.362
321.015
328.034
334.564
340.908
347.113
353.274
359.284
365.278
371.254
376.969
382.138
386.42
389.716
392.333
394.227
395.754
396.916
397.681
398.847
400.419
402.391
405.185
407.998
410.017
411.627
412.845
413.64
414.848
416.464
418.477
421.298
424.082
426.058
427.611
428.776
429.53
430.674
432.189
434.06
435.894
437.341
439.115
440.866
442.232
443.25
443.907
444.9
446.216
447.828
450.041
452.177
453.678
454.844
455.718
456.278
457.13
458.256
459.635
461.533
463.363
464.648
465.646
466.395
466.871
467.598
468.56
469.741
471.359
473.601
476.568
480.023
483.52
486.742
489.623
492.115
494.152
495.783
497.138
498.296
499.299
500.174
500.943
501.62
502.213
502.724
503.164
503.536
503.849
504.11
504.321
504.489
504.618
504.716
504.79
504.846
504.89
504.923
504.952
504.975
504.999
505.02
505.045
505.065
505.093
505.118
505.137
505.29
505.065
280.836
305.555
294.098
278.529
277.294
282.105
293.229
304.109
313.262
320.924
327.961
334.517
340.901
347.157
353.388
359.484
365.579
371.668
377.502
382.778
387.145
390.503
393.165
395.09
396.641
397.819
398.596
399.778
401.37
403.364
406.189
409.029
411.065
412.686
413.91
414.71
415.925
417.548
419.569
422.396
425.183
427.155
428.705
429.865
430.616
431.754
433.261
435.119
436.939
438.373
440.13
441.86
443.208
444.214
444.861
445.838
447.133
448.718
450.89
452.983
454.451
455.589
456.441
456.987
457.814
458.911
460.252
462.096
463.875
465.122
466.088
466.812
467.272
467.973
468.904
470.044
471.609
473.779
476.652
479.995
483.38
486.506
489.314
491.764
493.79
495.435
496.822
498.023
499.073
499.995
500.811
501.531
502.161
502.706
503.171
503.565
503.892
504.159
504.371
504.535
504.658
504.748
504.812
504.861
504.896
504.922
504.946
504.966
504.987
505.006
505.029
505.05
505.079
505.105
505.125
505.282
505.058
280.841
305.536
294.062
278.455
277.187
281.983
293.079
303.939
313.084
320.75
327.804
334.389
340.82
347.144
353.468
359.685
365.926
372.185
378.197
383.64
388.141
391.596
394.332
396.307
397.897
399.103
399.896
401.104
402.729
404.763
407.637
410.517
412.58
414.22
415.457
416.265
417.491
419.128
421.161
424
426.788
428.756
430.301
431.456
432.203
433.335
434.83
436.672
438.47
439.886
441.616
443.317
444.64
445.624
446.258
447.215
448.48
450.024
452.136
454.162
455.579
456.676
457.498
458.023
458.82
459.875
461.163
462.928
464.623
465.81
466.729
467.419
467.856
468.526
469.413
470.5
471.987
474.046
476.769
479.938
483.149
486.132
488.837
491.231
493.248
494.921
496.354
497.617
498.735
499.73
500.612
501.393
502.076
502.667
503.171
503.593
503.939
504.217
504.432
504.595
504.71
504.793
504.848
504.886
504.912
504.931
504.949
504.963
504.981
504.996
505.019
505.039
505.067
505.094
505.115
505.272
505.05
280.851
305.508
294.007
278.341
277.021
281.792
292.84
303.664
312.787
320.446
327.506
334.112
340.593
346.991
353.432
359.803
366.246
372.747
379.023
384.718
389.428
393.039
395.89
397.947
399.597
400.848
401.67
402.92
404.599
406.696
409.651
412.602
414.709
416.381
417.64
418.461
419.705
421.361
423.418
426.279
429.076
431.044
432.583
433.731
434.473
435.594
437.073
438.892
440.662
442.052
443.746
445.407
446.694
447.649
448.262
449.185
450.404
451.89
453.915
455.846
457.191
458.225
458.997
459.488
460.233
461.216
462.416
464.061
465.637
466.737
467.583
468.217
468.616
469.227
470.038
471.034
472.403
474.302
476.824
479.761
482.752
485.557
488.14
490.483
492.509
494.229
495.733
497.081
498.289
499.373
500.345
501.207
501.963
502.615
503.169
503.628
503.996
504.284
504.498
504.651
504.754
504.819
504.857
504.879
504.89
504.899
504.908
504.918
504.933
504.949
504.971
504.992
505.024
505.053
505.078
505.237
505.019
280.864
305.467
293.926
278.175
276.776
281.507
292.479
303.242
312.314
319.943
326.984
333.592
340.11
346.579
353.148
359.714
366.412
373.251
379.906
385.981
391.013
394.868
397.902
400.083
401.831
403.153
404.021
405.338
407.103
409.304
412.385
415.446
417.621
419.342
420.633
421.475
422.747
424.437
426.529
429.419
432.224
434.188
435.717
436.856
437.59
438.698
440.156
441.945
443.675
445.031
446.673
448.274
449.51
450.424
451.01
451.893
453.054
454.461
456.364
458.154
459.392
460.342
461.05
461.5
462.184
463.085
464.177
465.655
467.05
468.021
468.768
469.331
469.686
470.233
470.957
471.84
473.046
474.712
476.905
479.483
482.132
484.67
487.099
489.397
491.454
493.266
494.889
496.363
497.704
498.912
499.995
500.958
501.804
502.533
503.144
503.642
504.039
504.34
504.558
504.704
504.791
504.838
504.856
504.858
504.853
504.85
504.849
504.853
504.866
504.881
504.903
504.928
504.961
504.993
505.022
505.186
504.971
280.883
305.41
293.814
277.942
276.429
281.1
291.958
302.62
311.601
319.153
326.135
332.698
339.214
345.724
352.413
359.191
366.213
373.492
380.702
387.351
392.891
397.138
400.473
402.867
404.777
406.215
407.161
408.59
410.495
412.86
416.152
419.393
421.683
423.483
424.826
425.698
427.013
428.752
430.892
433.826
436.648
438.609
440.128
441.254
441.977
443.067
444.499
446.249
447.933
449.247
450.832
452.369
453.547
454.412
454.961
455.787
456.864
458.163
459.907
461.52
462.614
463.432
464.031
464.403
464.963
465.697
466.58
467.782
468.907
469.677
470.251
470.679
470.943
471.348
471.89
472.564
473.507
474.84
476.639
478.781
481.061
483.368
485.678
487.969
490.099
492.05
493.811
495.408
496.869
498.204
499.423
500.525
501.501
502.34
503.038
503.601
504.036
504.355
504.569
504.696
504.756
504.767
504.755
504.729
504.705
504.688
504.682
504.685
504.698
504.717
504.749
504.779
504.822
504.861
504.9
505.073
504.871
280.91
305.334
293.663
277.631
275.952
280.542
291.236
301.738
310.568
317.975
324.817
331.259
337.69
344.16
350.907
357.878
365.261
373.119
381.079
388.613
394.966
399.847
403.682
406.428
408.612
410.25
411.325
412.944
415.09
417.737
421.369
424.892
427.353
429.269
430.685
431.601
432.973
434.77
436.963
439.927
442.733
444.663
446.146
447.24
447.94
448.994
450.373
452.051
453.653
454.896
456.383
457.811
458.894
459.686
460.187
460.94
461.919
463.087
464.61
465.962
466.866
467.54
468.037
468.346
468.822
469.43
470.14
471.025
471.779
472.28
472.651
472.935
473.108
473.383
473.745
474.179
474.747
475.524
476.572
477.918
479.483
481.31
483.451
485.794
488.154
490.378
492.38
494.166
495.74
497.226
498.643
499.935
501.066
502.023
502.81
503.438
503.918
504.26
504.476
504.586
504.613
504.594
504.544
504.49
504.449
504.421
504.413
504.419
504.443
504.473
504.519
504.561
504.621
504.672
504.726
504.915
504.734
280.94
305.241
293.479
277.238
275.356
279.833
290.31
300.601
309.189
316.361
322.953
329.141
335.333
341.61
348.248
355.291
362.976
371.477
380.461
389.259
396.863
402.86
407.549
410.891
413.539
415.513
416.807
418.744
421.291
424.405
428.613
432.588
435.319
437.398
438.905
439.872
441.299
443.124
445.305
448.153
450.806
452.622
454.018
455.061
455.73
456.747
458.095
459.758
461.372
462.632
464.155
465.629
466.744
467.553
468.056
468.803
469.749
470.851
472.242
473.378
474.055
474.465
474.708
474.827
474.971
475.119
475.242
475.352
475.38
475.354
475.265
475.195
475.129
475.049
474.969
474.909
474.914
474.952
475.147
475.72
476.825
478.543
480.731
483.293
486.004
488.43
490.425
492.26
493.964
495.609
497.263
498.808
500.161
501.299
502.232
502.972
503.529
503.913
504.135
504.222
504.219
504.155
504.064
503.988
503.938
503.919
503.928
503.962
504.02
504.079
504.162
504.231
504.326
504.403
504.488
504.709
504.572
280.976
305.139
293.267
276.811
274.671
279.024
289.249
299.264
307.537
314.397
320.577
326.388
332.099
337.969
344.157
350.998
358.721
367.63
377.625
387.971
397.269
404.631
410.593
414.923
418.376
420.958
422.653
425.192
428.493
432.502
437.714
442.331
445.307
447.448
448.923
449.846
451.168
452.812
454.71
457.077
459.134
460.497
461.522
462.303
462.803
463.588
464.662
466.035
467.418
468.522
469.865
471.165
472.141
472.865
473.315
474.015
474.917
476.005
477.392
478.572
479.368
479.994
480.469
480.766
481.27
481.879
482.43
482.694
482.558
482.118
481.582
481.189
480.917
480.51
479.95
479.216
478.198
476.925
475.35
473.794
473.378
474.257
476.548
479.794
483.131
485.809
487.72
489.631
491.534
493.392
495.315
497.141
498.73
500.049
501.139
502.029
502.717
503.194
503.472
503.579
503.569
503.479
503.372
503.3
503.274
503.29
503.356
503.445
503.564
503.673
503.812
503.926
504.077
504.194
504.325
504.593
504.52
281.014
305.028
293.048
276.367
273.934
278.167
288.088
297.831
305.692
312.169
317.786
323.101
328.02
333.164
338.519
344.549
351.641
360.298
370.829
382.564
393.992
403.547
411.794
417.607
422.27
425.67
427.846
431.001
434.815
439.138
443.693
446.758
448.335
449.212
449.712
449.982
450.363
450.741
451.197
451.449
451.401
451.215
450.936
450.829
450.831
450.877
451.03
451.414
451.988
452.383
452.807
453.379
454.037
454.739
455.223
456.153
457.637
459.971
463.539
466.646
468.485
469.547
470.125
470.39
470.662
470.873
471.011
471.664
472.712
473.288
473.581
473.715
473.758
473.768
473.73
473.563
473.02
472.002
470.215
468.177
467.807
469.127
472.139
476.228
480.017
482.477
483.959
485.586
487.633
489.749
491.974
494.214
496.182
497.837
499.224
500.4
501.337
501.997
502.4
502.588
502.621
502.562
502.488
502.461
502.497
502.602
502.77
502.95
503.16
503.35
503.568
503.75
503.969
504.137
504.333
504.644
504.64
281.048
304.924
292.834
275.928
273.186
277.317
286.877
296.423
303.74
309.818
314.794
319.392
323.366
327.348
331.392
335.694
340.991
347.994
357.626
369.881
383.945
395.395
405.743
413.555
418.848
422.309
424.352
427.282
430.243
434.27
435.444
434.258
432.252
429.655
427.387
425.768
423.212
419.766
415.46
409.946
406.471
404.626
404.482
404.717
405.124
406.315
408.34
411.592
415.393
418.761
423.049
427.022
429.845
432.068
433.237
435.132
438.184
440.427
446.29
455.866
464.05
471.536
477.293
481.067
486.859
493.756
499.139
500.215
497.727
493.073
489.545
487.225
485.726
483.696
481.443
478.811
474.892
469.118
461.729
455.895
454.891
457.956
464.284
470.396
474.856
476.842
477.373
478.474
480.819
483.582
486.558
489.667
492.383
494.584
496.418
497.992
499.296
500.28
500.953
501.354
501.524
501.539
501.531
501.56
501.7
501.912
502.198
502.492
502.814
503.101
503.408
503.662
503.955
504.175
504.435
504.774
504.846
281.077
304.839
292.654
275.526
272.526
276.537
285.816
295.118
301.93
307.676
311.906
315.804
318.758
321.297
323.627
325.46
327.562
330.837
337.336
349.804
364.686
383.036
402.652
421.324
437.98
453.016
465.65
486.667
517.455
549.291
563.574
560.783
554.605
545.251
537.295
531.785
522.991
511.294
494.059
464.503
439.918
427.794
427.24
428.324
430.297
436.263
447.899
464.707
481.696
494.038
505.717
513.65
518.111
520.232
521.29
522.317
522.7
523.621
524.258
521.568
513.353
497.755
485.688
477.596
467.517
460.425
460.34
463.321
466.048
467.618
468.952
470.075
470.875
472.243
473.933
475.24
474.658
470.354
458.48
444.832
439.954
443.562
451.902
460.095
465.527
467.161
466.88
467.215
469.439
472.955
476.798
480.895
484.503
487.413
489.964
492.338
494.482
496.292
497.728
498.769
499.417
499.759
499.986
500.213
500.539
500.923
501.376
501.816
502.265
502.655
503.056
503.381
503.744
504.009
504.329
504.687
504.829
281.095
304.782
292.541
275.179
272.039
275.898
285.048
294.002
300.568
305.867
309.669
312.755
314.926
316.261
316.469
316.046
314.242
312.156
314.061
324.363
352.146
403.251
489.912
555.674
600.647
631.769
647.809
673.543
696.044
711.215
704.367
686.897
668.103
652.415
641.005
633.812
623.538
611.352
590.617
543.549
495.325
465.807
452.776
453.017
454.649
460.792
477.367
500.876
525.258
543.097
558.091
568.835
574.197
573.676
572.16
565.607
541.094
504.257
435.688
353.525
318.381
300.142
287.657
278.918
269.03
264.575
267.079
279.951
299.632
316.037
330.352
341.315
348.521
359.813
374.862
391.954
411.658
429.81
433.57
428.246
428.363
434.919
445.323
453.427
456.942
456.469
453.767
451.243
451.211
453.653
457.891
462.504
467.415
472.402
477.425
482.274
486.665
490.412
493.434
495.639
497.062
497.893
498.433
498.873
499.374
499.911
500.5
501.055
501.602
502.067
502.529
502.898
503.305
503.595
503.951
504.313
504.495
281.105
304.754
292.471
274.937
271.683
275.456
284.505
293.217
299.625
304.536
308.091
310.589
312.063
312.458
311.347
308.823
303.664
295.715
291.692
307.643
378.666
517.555
607.433
644.995
664.618
678.21
684.312
699.049
702.687
694.611
669.453
640.363
618.442
602.563
590.795
583.274
574.111
553.233
509.275
439.88
369.797
370.77
385.449
409.546
428.518
463.653
511.55
551.64
595.719
595.739
574.232
523.474
464.277
417.194
396.317
375.123
325.429
282.552
291.271
353.033
375.049
375.693
374.673
373.737
369.297
360.793
349.201
335.645
328.673
327.604
329.481
333.646
337.1
342.25
349.986
360.242
379.285
404.003
417.804
418.083
419.72
426.643
435.618
444.799
448.507
447.227
442.677
436.465
432.894
432.397
434.249
438.415
444.394
452.803
462.763
472.156
480.155
486.502
491.173
494.264
496.052
496.966
497.486
497.911
498.436
499.026
499.686
500.306
500.907
501.408
501.9
502.285
502.709
503.002
503.379
503.736
503.939
281.11
304.747
292.413
274.786
271.419
275.165
284.134
292.679
298.994
303.616
306.955
309.178
309.977
309.775
307.878
303.667
295.815
283.657
273.457
304.893
443.698
563.288
616.212
593.296
555.015
555.911
570.597
574.965
567.435
545.82
529.428
501.83
477.908
459.638
439.771
422.845
391.778
345.258
328.964
309.908
297.239
324.657
378.518
413.009
444.639
471.181
532.571
585.037
580.256
549.255
441.923
309.521
261.101
259.117
267.057
284.931
313.572
361.384
473.051
531.287
525.069
498.461
457.501
439.993
423.74
415.63
409.778
400.361
395.075
394.566
396.01
399.218
402.671
406.728
411.918
415.5
417.459
421.048
419.368
409.98
407.455
411.096
417.652
430.409
436.672
438.847
437.467
432.85
427.762
424.249
423.213
425.287
432.098
443.118
456.565
468.957
478.969
486.424
491.49
494.471
495.906
496.447
496.723
497.041
497.554
498.183
498.897
499.561
500.197
500.717
501.225
501.615
502.052
502.348
502.742
503.09
503.316
281.115
304.743
292.365
274.673
271.24
274.968
283.886
292.297
298.544
303.002
306.101
308.235
308.465
307.932
305.399
299.978
290.269
274.71
260.571
317.752
473.735
562.647
535.894
495.967
485.261
509.134
536.091
530.723
508.643
481.509
443.585
370.895
312.927
262.665
246.39
248.938
258.83
239.521
228.166
300.762
321.338
332.869
354.296
385.765
424.834
453.446
527.112
533.71
472.723
363.945
283.991
257.313
261.37
277.846
295.324
328.263
389.796
497.078
573.953
589.129
560.637
534.415
476.027
448.912
424.202
418.118
417.313
411.086
408.35
409.94
414.473
421.441
426.942
435.714
447.321
459.401
462.908
450.178
425.987
400.642
391.105
391.365
400.262
418.096
429.645
438.459
441.788
439.029
432.205
426.586
424.261
426.013
433.331
445.467
459.666
472.06
481.597
488.44
492.785
494.99
495.746
495.832
495.883
496.123
496.671
497.36
498.132
498.835
499.497
500.031
500.551
500.949
501.397
501.697
502.111
502.45
502.702
281.123
304.736
292.32
274.573
271.106
274.814
283.694
291.997
298.172
302.536
305.417
307.456
307.318
306.464
303.407
297.048
285.925
267.574
251.147
327.007
480.811
538.518
501.174
457.591
442.131
493.212
506.826
453.504
383.945
311.61
232.766
207.428
209.127
207.325
218.526
240.393
246.931
211.251
256.247
325.451
330.058
322.242
406.837
485.456
500.188
488.598
472.784
370.213
290.464
270.4
257.77
252.97
275.332
294.907
316.586
372.466
472.536
578.97
629.059
595.87
566.503
542.954
467.198
419.127
345.068
318.401
320.094
324.676
333.718
346.924
367.354
385.399
400.654
423.299
445.811
474.014
490.954
479.884
437.54
391.59
372.217
372.817
389.677
412.754
430.419
445.599
451
448.458
440.78
434.399
431.965
434.3
442.318
454.072
467.222
477.919
485.538
490.789
493.873
495.108
495.224
494.998
494.912
495.141
495.771
496.541
497.375
498.114
498.799
499.346
499.878
500.284
500.748
501.055
501.488
501.82
502.102
281.133
304.708
292.265
274.49
271.003
274.691
283.541
291.774
297.886
302.19
304.917
306.831
306.529
305.372
301.911
294.88
282.754
262.32
245.555
333.678
481.566
522.995
453.738
414.888
400.572
475.354
478.542
374.625
270.255
188.348
151.082
162.621
156.539
155.694
195.908
229.217
242.504
206.374
297.95
345.531
338.079
485.538
503.981
531.56
509.72
347.812
268.426
263.212
238.616
228.323
221.885
222.039
241.732
262.728
274.715
376.32
514.08
616.767
653.115
587.597
553.947
524.875
394.735
367.118
245.536
209.7
208.716
212.749
230.893
252.246
285.8
310.863
345.864
394.755
434.073
470.952
503.684
495.344
444.739
382.492
356.015
360.126
385.618
411.924
433.997
450.206
456.153
454.073
446.889
441.062
439.267
442.166
450.424
461.516
473.62
482.773
488.727
492.417
494.211
494.593
494.324
493.913
493.852
494.18
494.931
495.786
496.675
497.446
498.151
498.71
499.256
499.674
500.153
500.468
500.921
501.247
501.56
281.135
304.702
292.253
274.457
270.936
274.606
283.432
291.629
297.696
301.96
304.589
306.405
306.009
304.661
300.919
293.476
280.692
258.938
242.432
336.92
477.086
511.133
437.949
399.893
385.748
428.563
219.786
238.302
220.319
323.52
365.704
397.166
526.174
509.163
516.916
210.333
349.978
531.47
632.057
659.654
575.544
536.568
492.319
344.373
291.96
333.591
407.546
462.354
513.151
508.498
452.782
375.799
344.324
353.417
384.196
411.219
434.621
451.01
457.361
456.495
450.731
445.513
444.025
446.964
454.951
465.372
476.794
485.438
490.436
493.098
494.058
493.98
493.452
493.019
493.017
493.46
494.308
495.23
496.16
496.953
497.671
498.24
498.797
499.225
499.715
500.036
500.505
500.831
501.158
281.132
304.706
292.258
274.426
270.837
274.477
283.267
291.417
297.419
301.619
304.112
305.769
305.236
303.615
299.446
291.42
277.669
254.018
237.495
339.388
470.827
493.92
401.941
365.572
352.348
379.062
207.075
234.346
235.442
343.202
379.599
496.618
548.436
511.23
508.554
187.685
343.731
554.59
648.465
663.295
557.117
511.568
455.941
311.567
202.204
222.234
286.719
405.892
506.135
518.533
458.316
366.026
325.821
347.851
380.808
407.473
432.289
449.401
457.605
459.056
456.14
452.31
451.061
453.524
460.583
469.708
479.812
487.705
491.867
493.318
493.265
492.571
491.786
491.422
491.581
492.266
493.279
494.313
495.308
496.136
496.878
497.463
498.041
498.485
498.997
499.333
499.821
500.16
500.498
281.136
304.681
292.228
274.366
270.697
274.302
283.044
291.138
297.053
301.163
303.498
304.932
304.225
302.259
297.532
288.777
273.823
247.978
231.447
340.307
460.128
474.909
377.801
340.887
327.012
327.566
213.484
245.09
230.581
324.894
374.438
529.755
555.735
509.873
506.344
206.391
359.655
581.963
662.101
659.425
521.982
471.653
414.606
289.618
210.96
215.937
229.309
273.921
429.775
500.765
449.994
334.983
312.938
344.332
371.925
397.414
422.941
442.935
455.934
461.355
462.338
461.113
459.909
461.014
465.41
472.506
481.409
488.223
491.055
491.234
490.335
489.181
488.567
488.586
489.247
490.374
491.661
492.859
493.946
494.824
495.604
496.222
496.837
497.314
497.863
498.226
498.75
499.106
499.474
281.143
304.652
292.183
274.289
270.533
274.1
282.776
290.804
296.611
300.6
302.768
303.914
302.996
300.63
295.253
285.693
269.454
241.52
223.434
334.466
445.67
454.86
350.134
307.794
288.053
282.755
217.421
251.593
248.828
242.254
389.251
518.227
531.32
496.614
511.284
254.915
393.933
609.564
676.306
626.001
487.274
442.9
406.54
307.781
228.243
241.379
237.601
246.58
273.634
379.951
370.035
295.258
295.754
323.759
349.169
377.814
413.06
439.524
455.462
464.922
469.511
470.833
469.662
467.968
468.435
472.319
478.988
483.963
485.694
485.354
484.165
483.423
483.495
484.373
485.918
487.619
489.283
490.698
491.91
492.863
493.71
494.389
495.07
495.602
496.212
496.618
497.199
497.579
498.001
281.152
304.618
292.12
274.173
270.324
273.845
282.432
290.359
296.031
299.834
301.815
302.554
301.362
298.485
292.29
281.763
264.18
234.264
212.09
319.832
431.375
441.466
335.141
291.819
266.853
252.329
200.992
241.342
242.242
292.298
458.277
454.594
476.939
451.827
485.083
271.919
393.288
608.471
671.988
603.954
476.01
435.566
420.768
349.662
229.121
237.814
221.587
343.893
381.625
381.023
340.591
304.784
278.833
273.568
304.451
356.906
407.547
442.347
461.864
472.511
477.708
478.425
476.205
472.006
468.981
469.089
471.146
472.482
472.74
472.688
472.929
473.915
475.737
478.057
480.583
482.96
485.1
486.832
488.277
489.409
490.418
491.237
492.052
492.696
493.417
493.905
494.594
495.01
495.55
281.161
304.595
292.071
274.043
270.136
273.616
282.129
289.941
295.5
299.107
300.937
301.279
299.846
296.508
289.601
278.309
259.997
229.497
200.539
292.545
419.534
440.572
346.547
297.606
274.245
262.038
172.956
203.48
263.006
466.856
533.019
404.467
412.187
409.394
441.253
267.701
356.501
590.456
661.712
607.649
486.103
455.058
450.683
402.309
244.867
246.311
229.681
322.465
388.805
412.196
365.118
294.302
252.32
236.634
288.838
357.783
420.499
459.909
477.379
481.853
481.891
480.009
474.288
467.281
462.703
460.604
458.404
456.928
456.932
458.608
461.535
464.873
468.247
471.469
474.576
477.384
479.892
481.951
483.702
485.102
486.349
487.364
488.355
489.144
490.005
490.598
491.43
491.881
492.588
281.168
304.584
292.037
273.94
270.019
273.469
281.936
289.657
295.143
298.621
300.346
300.429
298.834
295.19
287.832
276.098
257.541
227.575
194.333
263.653
408.449
443.05
367.4
315.144
295.428
290.789
167.413
246.334
403.49
534.69
547.646
390.843
340.286
374.505
401.946
284.618
354.804
575.63
652.333
613.085
506.149
489.037
489.033
450.521
266.5
266.218
221.749
283.744
345.821
372.922
370.777
294.293
247.077
240.807
295.802
368.078
434.03
475.246
487.853
485.607
475.992
465.179
455.967
449.526
446.932
446.237
445.109
444.935
446.704
450.402
454.741
459.017
462.923
466.468
469.812
472.851
475.616
477.937
479.945
481.568
483.01
484.184
485.318
486.223
487.201
487.88
488.833
489.308
490.171
281.176
304.576
292.003
273.857
269.93
273.365
281.788
289.448
294.86
298.261
299.877
299.801
298.056
294.189
286.467
274.533
255.689
226.773
191.908
232.82
391.224
446.82
399.127
345.203
330.638
330.541
269.583
377.714
467.486
548.987
528.635
390.623
281.462
354.608
382.589
307.778
355.673
561.766
642.951
622.242
525.991
510.969
516.882
485.621
281.169
285.021
218.221
309.611
343.157
361.669
364.62
302.879
256.755
251.321
301.995
373.894
440.513
481.227
491.306
483.017
462.203
444.731
433.471
429.064
429.336
431.752
433.922
436.684
440.575
445.237
450.003
454.44
458.483
462.168
465.664
468.891
471.879
474.429
476.656
478.465
480.075
481.384
482.643
483.652
484.733
485.491
486.553
487.051
488.058
281.186
304.551
291.952
273.792
269.855
273.284
281.669
289.303
294.646
298.008
299.522
299.372
297.491
293.46
285.481
273.442
254.38
226.431
191.418
211.07
370.521
447.152
430.324
373.031
359.16
394.785
431.857
451.996
484.129
542.106
498.878
378.144
245.487
351.671
391.375
329.42
357.562
551.391
634.395
632.253
541.133
526.743
541.225
510.101
294.078
292.349
236.301
324.025
348.392
361.468
361.373
310.692
268.586
259.719
306.148
375.638
442.001
481.795
488.043
474.534
449.036
428.949
417.631
414.762
416.851
422.113
427.268
432.183
437.136
442.044
446.677
450.951
454.95
458.713
462.343
465.729
468.894
471.613
474.002
475.949
477.684
479.098
480.457
481.548
482.715
483.538
484.693
485.215
486.339
281.187
304.546
291.941
273.771
269.807
273.227
281.586
289.208
294.51
297.843
299.287
299.092
297.126
292.983
284.86
272.728
253.595
226.196
192.174
195.608
353.783
445.851
446.661
399.836
382.049
417.479
460.948
346.762
310.043
310.086
305.317
309.843
334.123
385.951
421.666
467.051
460.005
484.914
524.802
482.599
374.773
232.812
329.745
375.315
350.181
324.649
321.349
286.33
162.964
101.18
98.814
107.66
126.546
222.905
328.602
357.087
544.214
630.839
636.857
548.652
534.35
557.418
533.613
387.627
233.901
235.168
276.733
288.964
233.915
209.304
195.488
235.436
300.994
290.334
261.464
327.876
350.489
365.233
361.405
315.85
276.384
264.292
307.278
374.483
438.996
475.435
479.576
464.507
438.805
419.251
409.165
407.32
410.452
417.213
423.854
429.792
435.165
440.041
444.468
448.564
452.485
456.281
460.022
463.532
466.824
469.659
472.155
474.195
476.016
477.503
478.93
480.081
481.309
482.179
483.397
483.944
485.143
281.184
304.554
291.949
273.763
269.735
273.141
281.46
289.07
294.313
297.605
298.943
298.686
296.6
292.291
283.977
271.674
252.494
225.791
194.211
177.643
302.584
440.056
479.814
437.587
420.094
441.241
474.918
453.54
454.599
459.041
476.679
488.524
507.393
505.903
497.835
481.927
433.066
483.905
510.526
460.524
372.617
258.683
245.759
308.478
326.063
329.335
335.872
320.591
226.901
136.641
130.522
141.829
148.405
194.39
300.327
343.674
522.983
622.676
640.606
562.647
550.906
579.743
562.377
436.841
251.83
308.125
333.636
324.386
270.444
248.573
224.771
275.037
291.7
262.057
288.12
331.174
355.686
374.136
362.516
322.714
286.902
268.158
304.471
366.393
426.004
456.859
458.555
443.286
421.25
405.66
399.216
399.856
405.075
412.852
420.377
426.989
432.516
437.12
441.131
444.88
448.628
452.441
456.343
460.077
463.586
466.604
469.267
471.449
473.403
475.005
476.541
477.787
479.111
480.061
481.374
481.973
483.279
281.185
304.535
291.927
273.734
269.638
273.021
281.302
288.886
294.067
297.302
298.509
298.175
295.938
291.412
282.874
270.305
251.113
225.135
197.133
173.726
224.418
399.723
479.436
505.827
519.223
532.814
545.658
566.099
573.086
584.105
607.384
606.185
585.75
531.862
449.724
384.351
410.353
485.391
477.091
445.411
398.356
364.895
328.574
313.22
312.757
315.238
327.195
302.603
190.852
163.114
157.367
166.279
183.408
188.346
214.627
290.355
476.585
602.777
640.068
576.252
567.083
611.802
594.467
502.995
294.766
320.738
351.87
346.437
305.732
280.164
252.953
246.608
242.66
242.295
309.725
339.837
367.208
389.383
367.946
326.518
285.542
257.9
280.815
334.408
383.278
407.813
410.705
403.56
394.68
390.859
391.451
395.774
403.384
411.45
418.781
424.85
429.588
433.335
436.583
439.775
443.224
446.991
451.041
455.036
458.853
462.161
465.088
467.49
469.647
471.419
473.123
474.509
475.982
477.049
478.511
479.186
480.658
281.19
304.512
291.896
273.692
269.533
272.887
281.129
288.663
293.791
296.941
298.009
297.585
295.158
290.412
281.579
268.742
249.364
224.004
198.548
183.98
176.667
261.238
398.471
468.725
507.455
536.392
561.12
597.196
636.163
651.403
622.872
531.051
412.448
323.064
321.808
351.294
434.195
467.556
450.487
444.879
531.724
563.557
551.317
519.992
479.558
375.005
262.681
202.907
177.308
161.068
152.04
181.258
222.812
220.956
217.084
217.164
337.908
545.583
622.669
595.941
598.733
630.586
598.574
510.948
304.797
344.455
385.712
388.742
334.952
294.458
262.24
251.596
255.886
290.206
329.716
356.861
382.381
395.488
370.201
324.051
267.022
214.394
206.449
248.663
296.881
330.518
353.267
367.811
376.637
382.916
389.176
396.411
404.42
412.223
418.669
423.283
426.397
428.68
430.809
433.277
436.359
440.034
444.185
448.414
452.535
456.158
459.401
462.089
464.531
466.553
468.515
470.115
471.827
473.061
474.757
475.535
477.245
281.197
304.486
291.857
273.625
269.415
272.729
280.934
288.378
293.46
296.49
297.401
296.855
294.2
289.156
279.991
266.679
246.915
221.255
198.286
190.703
189.713
229.4
328.435
389.6
429
466.517
489.89
525.356
563.406
586.973
573.749
522.722
454.135
386.421
365.612
386.581
424.082
420.326
434.193
572.588
677.994
666.026
663.252
648.272
609.025
448.947
285.575
277.428
261.324
260.261
269.755
282.446
283.602
284.018
284.64
281.721
269.412
319.299
533.135
576.464
584.565
595.521
560.9
487.617
310.273
302.517
367.152
379.682
334.048
288.155
269.302
263.077
264.052
276.698
315.968
363.811
386.533
390.569
366.808
298.355
256.809
237.708
243.775