/*--------------------------------*- C++ -*----------------------------------*\
| =========                 |                                                 |
| \\      /  F ield         | OpenFOAM: The Open Source CFD Toolbox           |
|  \\    /   O peration     | Version:  v2006                                 |
|   \\  /    A nd           | Website:  www.openfoam.com                      |
|    \\/     M anipulation  |                                                 |
\*---------------------------------------------------------------------------*/
FoamFile
{
    version     2.0;
    format      ascii;
    class       volScalarField;
    location    "0.51";
    object      k;
}
// * * * * * * * * * * * * * * * * * * * * * * * * * * * * * * * * * * * * * //

dimensions      [0 2 -2 0 0 0 0];


internalField   nonuniform List<scalar> 
374400
(
0.0963757
0.114492
0.105754
0.0943784
0.0934106
0.0967757
0.104847
0.113181
0.120412
0.126587
0.132333
0.13776
0.143087
0.148363
0.153687
0.158959
0.164279
0.169645
0.17483
0.179557
0.183507
0.186573
0.189026
0.190814
0.192262
0.19337
0.194104
0.195218
0.196731
0.198641
0.20137
0.204144
0.206153
0.207763
0.208987
0.209794
0.211013
0.212655
0.214711
0.217617
0.220518
0.222594
0.224235
0.225475
0.226286
0.227507
0.229136
0.23116
0.233157
0.234742
0.236696
0.238637
0.240156
0.241297
0.242041
0.243154
0.244638
0.246466
0.248993
0.251451
0.253191
0.254547
0.255569
0.256234
0.257227
0.258553
0.260183
0.262439
0.264633
0.266188
0.267394
0.268306
0.268896
0.269778
0.270954
0.272407
0.274406
0.277201
0.280958
0.28542
0.290027
0.29436
0.298294
0.30173
0.304536
0.306756
0.308574
0.3101
0.311403
0.312522
0.313496
0.314351
0.3151
0.315749
0.316308
0.316783
0.317187
0.317528
0.31781
0.318041
0.318224
0.318365
0.318476
0.318561
0.318627
0.318679
0.318723
0.318758
0.318791
0.31882
0.318852
0.318877
0.318911
0.318942
0.318965
0.319154
0.318873
0.0963769
0.11449
0.10575
0.0943716
0.0934001
0.0967624
0.104829
0.11316
0.120392
0.126569
0.132321
0.137755
0.143093
0.148384
0.153726
0.159022
0.164368
0.169765
0.174983
0.17974
0.183714
0.186799
0.189264
0.191063
0.192516
0.193629
0.194367
0.195486
0.197006
0.198924
0.201663
0.204446
0.20646
0.208075
0.209303
0.210112
0.211333
0.212978
0.215038
0.217948
0.220852
0.222929
0.224571
0.225811
0.226622
0.227841
0.229469
0.231491
0.233486
0.23507
0.23702
0.238956
0.240472
0.241611
0.242353
0.243462
0.244941
0.246763
0.24928
0.251727
0.253459
0.254808
0.255825
0.256485
0.257472
0.258789
0.260412
0.262653
0.264833
0.266376
0.267575
0.26848
0.269065
0.269941
0.271108
0.272549
0.274533
0.277308
0.281039
0.285467
0.290042
0.294344
0.298255
0.301675
0.304477
0.3067
0.308524
0.310066
0.311382
0.312518
0.31351
0.314383
0.315146
0.315808
0.316377
0.316862
0.317274
0.317618
0.317905
0.318135
0.318318
0.318458
0.318567
0.318651
0.318716
0.318768
0.31881
0.318844
0.318879
0.318907
0.318937
0.318966
0.318999
0.319031
0.319054
0.319245
0.318964
0.0963787
0.114484
0.105739
0.0943523
0.0933732
0.0967322
0.104792
0.113118
0.12035
0.126534
0.132296
0.137745
0.143106
0.148428
0.153813
0.15916
0.164567
0.170033
0.175321
0.180146
0.184174
0.187298
0.189793
0.191611
0.19308
0.194205
0.19495
0.19608
0.197614
0.199549
0.202309
0.205113
0.20714
0.208763
0.209998
0.21081
0.212037
0.213689
0.215758
0.218676
0.221583
0.223663
0.225304
0.226544
0.227355
0.228573
0.230197
0.232215
0.234204
0.235781
0.237722
0.239648
0.241156
0.242286
0.243023
0.244123
0.24559
0.247397
0.24989
0.25231
0.254022
0.255353
0.256356
0.257007
0.257982
0.259281
0.260878
0.263086
0.26523
0.266746
0.267923
0.268813
0.269388
0.270248
0.271396
0.27281
0.274758
0.277481
0.281139
0.285478
0.289962
0.294185
0.298034
0.301413
0.304197
0.306426
0.308269
0.309835
0.311187
0.312361
0.313391
0.314299
0.315094
0.315782
0.316376
0.316879
0.317304
0.317659
0.317949
0.318181
0.318362
0.318499
0.318603
0.318681
0.318742
0.318789
0.318827
0.318858
0.318889
0.318917
0.318949
0.318974
0.319009
0.319041
0.319065
0.319255
0.318974
0.0963813
0.114475
0.105722
0.0943196
0.0933267
0.0966786
0.104724
0.113041
0.12027
0.126459
0.132234
0.137705
0.143099
0.148466
0.153913
0.159341
0.164843
0.170421
0.175828
0.180764
0.184882
0.188073
0.190619
0.192471
0.193968
0.195112
0.195871
0.19702
0.198578
0.200542
0.20334
0.206178
0.208229
0.209868
0.211112
0.211933
0.21317
0.214833
0.216916
0.219849
0.222767
0.22485
0.226493
0.227731
0.22854
0.229755
0.231375
0.233384
0.235362
0.236929
0.238855
0.240765
0.242256
0.243373
0.244101
0.245187
0.246634
0.248414
0.250866
0.253242
0.254919
0.256221
0.257201
0.257837
0.258786
0.260052
0.261608
0.263756
0.265843
0.267317
0.268458
0.269319
0.269876
0.270706
0.271815
0.273183
0.275068
0.277705
0.281249
0.285453
0.289798
0.293897
0.297652
0.300976
0.303742
0.305985
0.307865
0.309484
0.310892
0.312125
0.313214
0.314176
0.315021
0.315753
0.31638
0.316913
0.317358
0.317724
0.318016
0.318244
0.318416
0.318544
0.318636
0.318704
0.318754
0.31879
0.318823
0.318849
0.318876
0.318901
0.318929
0.318956
0.318992
0.319024
0.319049
0.319244
0.318965
0.0963854
0.11446
0.105695
0.0942676
0.0932509
0.0965909
0.104612
0.11291
0.120128
0.126317
0.132103
0.137595
0.143028
0.148452
0.153982
0.15952
0.165161
0.170904
0.17649
0.181596
0.185856
0.189152
0.191779
0.193687
0.195227
0.196404
0.197182
0.198361
0.199958
0.20197
0.204829
0.20772
0.209806
0.211471
0.212734
0.213566
0.21482
0.216504
0.218609
0.221566
0.224498
0.226585
0.228228
0.229466
0.230274
0.231487
0.233101
0.235099
0.237061
0.238614
0.240517
0.242401
0.243869
0.244967
0.245682
0.246748
0.248167
0.249908
0.252299
0.254605
0.25623
0.257488
0.258436
0.259051
0.259968
0.261189
0.262687
0.264749
0.266741
0.268147
0.269235
0.270057
0.270588
0.271382
0.272442
0.273747
0.275542
0.278049
0.281412
0.285402
0.289529
0.293446
0.297065
0.300313
0.303063
0.305335
0.30727
0.308962
0.310454
0.311778
0.312951
0.313991
0.314904
0.315696
0.316374
0.316944
0.317416
0.317798
0.318096
0.318325
0.318489
0.318606
0.318687
0.318741
0.318779
0.318806
0.31883
0.318848
0.31887
0.318889
0.318918
0.318943
0.318978
0.31901
0.319036
0.319231
0.318955
0.0963921
0.114438
0.105654
0.094188
0.0931338
0.0964545
0.104435
0.112698
0.119891
0.126068
0.131854
0.137359
0.14283
0.148316
0.153946
0.159625
0.165453
0.171429
0.177275
0.182639
0.187117
0.190579
0.193331
0.195329
0.196938
0.198164
0.198976
0.200204
0.201863
0.203949
0.206907
0.209887
0.21203
0.213738
0.215031
0.215881
0.217161
0.218876
0.221016
0.224014
0.226974
0.229073
0.23072
0.231956
0.232763
0.233971
0.235576
0.23756
0.239501
0.241034
0.242907
0.244755
0.246191
0.247262
0.247957
0.248991
0.250365
0.252047
0.254351
0.256561
0.25811
0.259302
0.260196
0.260773
0.261633
0.262776
0.264178
0.266106
0.267965
0.269271
0.270276
0.271034
0.27152
0.272246
0.273216
0.274413
0.276067
0.278383
0.281502
0.285205
0.289055
0.292744
0.296206
0.299383
0.302138
0.304466
0.306483
0.308277
0.309877
0.311311
0.312595
0.313739
0.314745
0.315616
0.316362
0.316983
0.317488
0.317885
0.318186
0.318404
0.318554
0.31865
0.318707
0.318741
0.318757
0.31877
0.318781
0.318793
0.318811
0.31883
0.318856
0.318882
0.318922
0.318958
0.318988
0.319187
0.318915
0.0964019
0.114407
0.105593
0.0940716
0.0929607
0.0962506
0.104169
0.112373
0.119515
0.125658
0.13142
0.136918
0.142412
0.147951
0.153688
0.159539
0.165602
0.171898
0.178116
0.183862
0.188673
0.192392
0.195342
0.197477
0.199193
0.200499
0.201363
0.202667
0.204425
0.206631
0.209741
0.212856
0.215087
0.216859
0.218196
0.219074
0.220393
0.222156
0.22435
0.227404
0.230395
0.232505
0.234154
0.235389
0.236194
0.237396
0.238989
0.240953
0.242862
0.244368
0.246196
0.24799
0.249377
0.250409
0.251078
0.252073
0.25339
0.254996
0.257175
0.259238
0.260675
0.261777
0.262604
0.263138
0.263933
0.264989
0.266274
0.268019
0.269676
0.270837
0.271729
0.272407
0.272843
0.273496
0.274367
0.275436
0.276898
0.278938
0.28166
0.284915
0.288332
0.291675
0.294928
0.298036
0.30082
0.303252
0.305412
0.307357
0.309121
0.310708
0.312132
0.313402
0.314525
0.315498
0.316321
0.316997
0.31754
0.317959
0.318267
0.318479
0.31861
0.318684
0.318716
0.318722
0.318718
0.318712
0.318709
0.318714
0.318726
0.318745
0.318771
0.3188
0.318842
0.318882
0.318917
0.319121
0.318853
0.0964151
0.114363
0.10551
0.0939083
0.0927154
0.0959598
0.103785
0.111896
0.11895
0.125016
0.130716
0.136162
0.14164
0.1472
0.153027
0.159056
0.16541
0.172117
0.178871
0.18519
0.190522
0.194653
0.197924
0.200288
0.202184
0.203619
0.204569
0.205998
0.207918
0.210314
0.213671
0.217007
0.219381
0.221255
0.222661
0.223582
0.22496
0.226795
0.229065
0.2322
0.235241
0.23737
0.239025
0.240258
0.241058
0.242252
0.24383
0.245769
0.247645
0.249116
0.250895
0.252634
0.253968
0.254954
0.255588
0.256526
0.257761
0.259258
0.261279
0.263163
0.264451
0.265414
0.266125
0.266576
0.267236
0.268109
0.269164
0.270604
0.271958
0.272891
0.273583
0.274103
0.274432
0.274917
0.27557
0.276386
0.277531
0.279163
0.281391
0.284094
0.287026
0.290065
0.29317
0.296272
0.299141
0.301737
0.304061
0.306154
0.308054
0.30979
0.311378
0.312821
0.31411
0.315228
0.316168
0.316934
0.317535
0.317982
0.318292
0.318484
0.318582
0.318609
0.318601
0.31857
0.318538
0.318512
0.3185
0.3185
0.318513
0.318536
0.318573
0.31861
0.318662
0.318711
0.318759
0.318976
0.318723
0.0964338
0.114304
0.105397
0.093691
0.09238
0.0955613
0.103254
0.111223
0.118136
0.124064
0.129629
0.134951
0.140333
0.145833
0.151682
0.157859
0.164521
0.171755
0.179221
0.186412
0.192572
0.197363
0.201166
0.203911
0.206105
0.207761
0.208855
0.210497
0.212688
0.21541
0.21917
0.22285
0.22544
0.227463
0.228969
0.229951
0.231412
0.233338
0.235702
0.238917
0.241982
0.244104
0.245738
0.24695
0.247734
0.2489
0.250435
0.252311
0.254111
0.255515
0.257198
0.258824
0.260061
0.26097
0.261554
0.262418
0.263549
0.264909
0.266695
0.268301
0.269387
0.270201
0.270807
0.271194
0.271772
0.272521
0.273403
0.274513
0.275467
0.276106
0.276577
0.276939
0.277169
0.277512
0.277965
0.278508
0.279218
0.280183
0.281481
0.283173
0.285189
0.287591
0.290451
0.29359
0.296719
0.299642
0.302256
0.304578
0.306616
0.308524
0.31035
0.312036
0.313529
0.314805
0.315865
0.316719
0.31738
0.317863
0.318182
0.318356
0.318417
0.318406
0.318349
0.318278
0.318219
0.318176
0.31816
0.318163
0.318186
0.318222
0.318276
0.318329
0.318403
0.318467
0.318534
0.31877
0.318546
0.0964551
0.114232
0.10526
0.0934168
0.0919606
0.095058
0.102575
0.110357
0.117053
0.122766
0.128099
0.13318
0.138325
0.143621
0.149328
0.155519
0.162413
0.170201
0.178609
0.18702
0.19443
0.200374
0.205077
0.208464
0.211163
0.21319
0.214528
0.216526
0.219173
0.222435
0.22688
0.23112
0.234064
0.236317
0.237959
0.239022
0.240578
0.24258
0.244985
0.248139
0.251091
0.253124
0.254686
0.255857
0.256616
0.257753
0.259267
0.261139
0.262959
0.264382
0.266101
0.267775
0.269045
0.269974
0.270562
0.271422
0.272527
0.27383
0.275508
0.276925
0.277804
0.278364
0.278716
0.278911
0.279143
0.279399
0.279648
0.279915
0.280059
0.280087
0.280057
0.279998
0.27994
0.279853
0.279774
0.27971
0.279718
0.279757
0.279921
0.280519
0.281868
0.284125
0.287095
0.290528
0.294097
0.297277
0.29988
0.302221
0.304384
0.306465
0.308569
0.310566
0.312342
0.313853
0.315104
0.316107
0.316877
0.317423
0.317759
0.317913
0.317933
0.317872
0.317756
0.317651
0.317575
0.317538
0.31754
0.317572
0.317639
0.317711
0.317814
0.317901
0.318019
0.318116
0.318224
0.318501
0.318332
0.0964807
0.114153
0.105102
0.0931191
0.091482
0.0944839
0.101799
0.109346
0.115763
0.121198
0.126163
0.130896
0.135594
0.140493
0.145748
0.151681
0.158532
0.166599
0.17586
0.185704
0.194778
0.202108
0.208146
0.212586
0.216161
0.218858
0.220641
0.223314
0.226816
0.231108
0.236748
0.241806
0.245094
0.247471
0.249119
0.25016
0.251641
0.253493
0.255643
0.258342
0.260689
0.262242
0.263403
0.264286
0.264858
0.265735
0.26694
0.268471
0.27
0.271219
0.272693
0.274117
0.275176
0.275963
0.276461
0.277213
0.278195
0.279386
0.280944
0.282332
0.283309
0.284102
0.284734
0.285143
0.285805
0.286672
0.287597
0.288333
0.288517
0.288428
0.288041
0.28766
0.287412
0.287009
0.286413
0.285583
0.28434
0.282713
0.280667
0.278557
0.2779
0.278987
0.281993
0.286232
0.290567
0.294089
0.296587
0.298966
0.301329
0.303646
0.306062
0.308407
0.310488
0.312236
0.313687
0.31488
0.315818
0.316493
0.316912
0.317102
0.317121
0.317032
0.316889
0.31678
0.316728
0.31673
0.316795
0.316899
0.317045
0.317181
0.317355
0.317499
0.31769
0.317838
0.318004
0.318343
0.318255
0.0965076
0.114068
0.104939
0.0928112
0.0909671
0.0938785
0.100954
0.108265
0.114333
0.119433
0.123906
0.128194
0.132196
0.136413
0.140893
0.146016
0.152179
0.159851
0.169426
0.180432
0.191497
0.201
0.209384
0.215407
0.220289
0.223881
0.226198
0.22956
0.233647
0.238312
0.24322
0.246505
0.248193
0.249128
0.249673
0.249972
0.250391
0.250814
0.251367
0.251842
0.251939
0.251914
0.251766
0.251666
0.251671
0.251727
0.251895
0.252248
0.252723
0.253014
0.253177
0.253366
0.253643
0.254061
0.25435
0.254993
0.256179
0.258283
0.262008
0.265655
0.268043
0.269545
0.270446
0.270933
0.271475
0.272052
0.272586
0.273762
0.275464
0.276578
0.277278
0.277688
0.277908
0.278152
0.278349
0.278384
0.278003
0.276714
0.274358
0.271436
0.270793
0.272536
0.276653
0.281991
0.286909
0.290211
0.292139
0.294061
0.296522
0.2991
0.301829
0.30466
0.30721
0.309382
0.311205
0.312758
0.314019
0.314939
0.315532
0.315839
0.315927
0.315875
0.315771
0.315711
0.315728
0.315831
0.316027
0.316247
0.316509
0.316749
0.317026
0.317258
0.317536
0.317751
0.318001
0.318395
0.318398
0.0965317
0.113988
0.104779
0.0925078
0.0904456
0.0932807
0.100076
0.107207
0.112834
0.11758
0.121513
0.12518
0.128367
0.131562
0.134867
0.138424
0.142879
0.148869
0.15734
0.16848
0.181783
0.193
0.203351
0.2113
0.216745
0.220332
0.222467
0.225519
0.228645
0.232907
0.233938
0.232593
0.230321
0.227503
0.225108
0.223426
0.220778
0.217272
0.213089
0.207695
0.204448
0.202835
0.202891
0.203182
0.203659
0.204992
0.207246
0.210558
0.214147
0.217093
0.22064
0.223844
0.225967
0.22766
0.228654
0.229948
0.232507
0.234381
0.239096
0.248161
0.256672
0.265049
0.271872
0.2765
0.283846
0.293518
0.303351
0.308696
0.308579
0.3059
0.301573
0.298769
0.296999
0.294479
0.291584
0.288418
0.283547
0.276031
0.265925
0.257339
0.255233
0.258742
0.266872
0.274912
0.280794
0.28361
0.284349
0.285463
0.288049
0.291325
0.294902
0.298757
0.30228
0.305178
0.307579
0.309631
0.311353
0.312686
0.313632
0.314231
0.314524
0.314577
0.314562
0.314568
0.314696
0.314933
0.315274
0.315637
0.316043
0.316408
0.316802
0.317127
0.317502
0.317784
0.318119
0.318548
0.318652
0.0965522
0.113922
0.104645
0.0922292
0.0899881
0.0927337
0.0993066
0.106235
0.111447
0.115905
0.119233
0.122289
0.124637
0.126613
0.128441
0.129911
0.131579
0.134255
0.139683
0.150518
0.163975
0.181062
0.200263
0.219566
0.237451
0.254548
0.269189
0.294606
0.334014
0.376183
0.395552
0.391414
0.382459
0.369541
0.35888
0.351697
0.340451
0.325947
0.306136
0.27274
0.245899
0.231864
0.230325
0.231258
0.233068
0.238715
0.250587
0.268416
0.286428
0.299809
0.312488
0.320747
0.325093
0.326996
0.327821
0.328407
0.328035
0.327764
0.329365
0.329473
0.325529
0.31244
0.297098
0.28641
0.271755
0.259379
0.25733
0.261629
0.268119
0.271812
0.27433
0.276166
0.277356
0.279209
0.281439
0.283217
0.282685
0.277673
0.26263
0.245308
0.238405
0.242424
0.252684
0.262868
0.269789
0.272222
0.271987
0.272109
0.274216
0.278215
0.282705
0.287661
0.292309
0.2961
0.299352
0.302338
0.305061
0.307411
0.309331
0.310787
0.311746
0.312264
0.312568
0.312825
0.313193
0.313642
0.314193
0.314745
0.315316
0.315817
0.316333
0.316752
0.317219
0.317561
0.317973
0.318428
0.318623
0.0965654
0.113876
0.104564
0.0919862
0.0896529
0.0922873
0.0987511
0.105409
0.11041
0.114499
0.11748
0.119872
0.121555
0.122586
0.122662
0.122297
0.120855
0.119196
0.120753
0.129203
0.152637
0.200834
0.298353
0.38518
0.450748
0.498917
0.525367
0.56817
0.606372
0.631762
0.618951
0.586479
0.552995
0.525923
0.506637
0.494656
0.477878
0.457956
0.429403
0.366936
0.306769
0.273232
0.258374
0.258556
0.260298
0.267228
0.286406
0.316652
0.346671
0.36956
0.389334
0.399905
0.402491
0.400825
0.397907
0.389336
0.362849
0.313537
0.233305
0.150799
0.12221
0.110019
0.10159
0.0953264
0.0874407
0.0832499
0.0840987
0.0918546
0.105509
0.117453
0.128421
0.137145
0.143034
0.15259
0.166101
0.182697
0.202984
0.223289
0.229005
0.223244
0.224319
0.232773
0.245793
0.255894
0.260514
0.260232
0.257309
0.254005
0.253416
0.255551
0.260183
0.265416
0.271175
0.277155
0.283213
0.289141
0.294637
0.299456
0.303468
0.306531
0.308593
0.309815
0.31056
0.311103
0.311691
0.312331
0.313054
0.313754
0.314454
0.315055
0.315651
0.316128
0.316652
0.317027
0.317487
0.317947
0.318194
0.0965726
0.113853
0.104512
0.0918179
0.0894071
0.0919789
0.0983601
0.104827
0.109697
0.113472
0.116242
0.118181
0.119277
0.119556
0.118651
0.116611
0.112644
0.106633
0.103918
0.115954
0.176531
0.33323
0.46047
0.519769
0.551378
0.574237
0.586062
0.611338
0.617074
0.603393
0.56013
0.510945
0.473939
0.4463
0.427237
0.413997
0.399264
0.369632
0.313856
0.235276
0.167305
0.168736
0.182335
0.205034
0.226165
0.26171
0.322148
0.374121
0.442218
0.445547
0.417813
0.354177
0.289297
0.236329
0.208126
0.184976
0.143681
0.1065
0.0994612
0.142473
0.168093
0.172135
0.171159
0.170643
0.168615
0.16331
0.155653
0.145692
0.139005
0.136562
0.136087
0.136742
0.138604
0.141527
0.146002
0.151938
0.166016
0.189004
0.206464
0.210335
0.215396
0.225322
0.236302
0.246982
0.251178
0.249823
0.245137
0.238478
0.234215
0.233015
0.234248
0.238098
0.244202
0.253071
0.264351
0.275667
0.285681
0.29394
0.300264
0.304646
0.307297
0.308689
0.309418
0.30992
0.310515
0.311205
0.312009
0.312791
0.313561
0.314211
0.314848
0.315346
0.315893
0.316271
0.316757
0.31721
0.317485
0.0965754
0.113848
0.104469
0.0917133
0.0892262
0.0917749
0.0980971
0.104425
0.10922
0.112771
0.115348
0.117086
0.11764
0.117448
0.115943
0.112636
0.106749
0.0978866
0.091034
0.113648
0.24373
0.395488
0.473611
0.437695
0.382252
0.385092
0.406802
0.413521
0.403419
0.374595
0.353074
0.3157
0.283137
0.260293
0.239307
0.222793
0.192013
0.1469
0.127681
0.112023
0.104865
0.12631
0.174111
0.206563
0.239175
0.269753
0.341087
0.422253
0.420701
0.386635
0.264124
0.133257
0.0877872
0.0836837
0.0874607
0.09825
0.118141
0.149369
0.256342
0.345314
0.350675
0.323443
0.271859
0.247234
0.225787
0.216621
0.213567
0.208599
0.205022
0.204582
0.205407
0.207062
0.209221
0.211323
0.214564
0.215795
0.211881
0.210381
0.209465
0.203498
0.204914
0.21112
0.218763
0.231727
0.237589
0.239819
0.238955
0.235097
0.229998
0.22597
0.224092
0.225241
0.23112
0.242134
0.256777
0.271468
0.283965
0.293729
0.300709
0.305063
0.307305
0.308194
0.308553
0.308866
0.30941
0.31013
0.310999
0.311838
0.312657
0.313332
0.313991
0.314495
0.315057
0.315438
0.315946
0.316386
0.31669
0.096579
0.113845
0.104433
0.0916352
0.0891033
0.0916363
0.0979213
0.104143
0.108877
0.112307
0.11468
0.116347
0.11647
0.116011
0.114021
0.109835
0.102676
0.0916513
0.0824071
0.123526
0.278466
0.395097
0.357396
0.306397
0.296353
0.324174
0.359309
0.352891
0.325075
0.292539
0.245299
0.170314
0.124017
0.0894421
0.0754325
0.0743471
0.07868
0.0682067
0.0598197
0.10858
0.131401
0.127281
0.145538
0.177484
0.22259
0.252491
0.337705
0.353622
0.287938
0.173285
0.101003
0.0825649
0.0812934
0.0895392
0.0998601
0.121413
0.169441
0.28276
0.401758
0.434272
0.40179
0.373231
0.300713
0.263943
0.229408
0.219918
0.221353
0.218929
0.217465
0.219242
0.22356
0.230028
0.23515
0.243378
0.25415
0.264846
0.264728
0.246821
0.218709
0.196625
0.191411
0.193686
0.201826
0.218568
0.22918
0.23825
0.243391
0.242171
0.236149
0.229952
0.226378
0.22698
0.233117
0.245248
0.260817
0.275655
0.287599
0.296593
0.302668
0.306027
0.307349
0.307569
0.307572
0.307732
0.30828
0.309075
0.310019
0.310912
0.311766
0.312462
0.313135
0.313649
0.314225
0.31461
0.315142
0.31557
0.315907
0.0965846
0.113839
0.104399
0.0915651
0.0890114
0.091529
0.0977842
0.103923
0.108593
0.111954
0.114152
0.11573
0.115597
0.114873
0.112489
0.107634
0.0995348
0.0868202
0.0763802
0.130946
0.286948
0.36161
0.312439
0.261619
0.244392
0.303957
0.323149
0.260709
0.187544
0.119345
0.064608
0.0508315
0.0514682
0.0487008
0.0531985
0.0647434
0.069923
0.051604
0.0783094
0.12534
0.124363
0.141202
0.221335
0.314657
0.324491
0.305728
0.281283
0.169904
0.105308
0.0932624
0.0835778
0.0792613
0.0890568
0.0995587
0.113053
0.157169
0.257251
0.404199
0.489281
0.444879
0.407944
0.382658
0.297549
0.24332
0.162504
0.130641
0.128461
0.131569
0.139429
0.150193
0.168063
0.185439
0.201396
0.224588
0.247335
0.279724
0.299274
0.283765
0.233958
0.190566
0.175937
0.177358
0.191178
0.212438
0.22876
0.245118
0.25326
0.252684
0.24622
0.239316
0.235501
0.236516
0.243509
0.255559
0.270304
0.283495
0.293183
0.300103
0.30448
0.306498
0.306882
0.306619
0.306382
0.306497
0.307119
0.308021
0.309049
0.309994
0.310882
0.311594
0.312283
0.312806
0.313401
0.313793
0.31435
0.314769
0.315142
0.096592
0.113817
0.104358
0.0915078
0.0889405
0.0914428
0.0976741
0.103759
0.108376
0.111691
0.113767
0.115239
0.11499
0.114035
0.111346
0.106022
0.0972706
0.0833383
0.0728402
0.136625
0.287847
0.340629
0.256156
0.215248
0.201847
0.282684
0.289565
0.171566
0.0907286
0.0405649
0.0252345
0.0292026
0.0262647
0.0249725
0.0406239
0.0595096
0.0673404
0.0497771
0.108279
0.141982
0.139737
0.308072
0.319815
0.356918
0.327088
0.147436
0.0833714
0.0855547
0.0722182
0.0665682
0.0623337
0.0610287
0.0693085
0.0787896
0.0822405
0.160928
0.31293
0.466375
0.530012
0.430682
0.38784
0.358393
0.215104
0.18865
0.0831639
0.0552238
0.0531532
0.0542397
0.0626327
0.0746971
0.0957859
0.113856
0.143201
0.190682
0.231104
0.275817
0.314693
0.303466
0.243621
0.184257
0.162943
0.166103
0.186876
0.210783
0.231894
0.249923
0.258833
0.258878
0.253125
0.246792
0.243739
0.245318
0.252798
0.264412
0.278238
0.289921
0.297693
0.302671
0.305313
0.306093
0.305875
0.305282
0.305038
0.305248
0.30603
0.307048
0.308157
0.309146
0.310062
0.310791
0.311494
0.312032
0.312645
0.313047
0.313629
0.314039
0.314452
0.0965931
0.113813
0.104349
0.0914848
0.0888951
0.0913839
0.0975962
0.103653
0.108232
0.111516
0.113517
0.114907
0.114588
0.113491
0.110592
0.104985
0.0958129
0.0811344
0.0709063
0.139432
0.282497
0.325032
0.238628
0.199795
0.186167
0.229345
0.0562042
0.0651421
0.0574091
0.127356
0.162904
0.210877
0.349036
0.32304
0.336393
0.0490797
0.138779
0.337183
0.490923
0.539799
0.413435
0.364206
0.317317
0.155319
0.104037
0.135738
0.203905
0.265883
0.326211
0.319127
0.252677
0.179216
0.153783
0.159841
0.185268
0.209636
0.232403
0.25079
0.260078
0.261441
0.257325
0.25176
0.249118
0.250795
0.258108
0.269121
0.282194
0.293398
0.300152
0.303852
0.30538
0.305446
0.304854
0.304155
0.303969
0.304299
0.305224
0.306332
0.3075
0.308522
0.309457
0.310196
0.310913
0.311461
0.312089
0.312499
0.313099
0.313511
0.313941
0.0965913
0.113816
0.104353
0.0914635
0.0888271
0.0912945
0.0974775
0.103498
0.108023
0.111257
0.113152
0.114413
0.113992
0.11269
0.109479
0.103474
0.0936946
0.0779796
0.0679217
0.141501
0.274951
0.30281
0.200652
0.16643
0.15489
0.180493
0.0499851
0.062905
0.0672624
0.14327
0.172738
0.310373
0.37177
0.324419
0.322857
0.0413908
0.136626
0.373234
0.518958
0.545
0.386611
0.328059
0.264844
0.123533
0.0473563
0.0590505
0.101319
0.208713
0.318308
0.3338
0.26133
0.1717
0.138824
0.153812
0.182057
0.205515
0.23001
0.249064
0.26025
0.264204
0.262949
0.259307
0.257169
0.258489
0.264851
0.274644
0.286133
0.296366
0.302225
0.304535
0.304665
0.303902
0.302796
0.302121
0.30211
0.302721
0.30389
0.305154
0.306418
0.30749
0.308456
0.309215
0.309957
0.310524
0.311178
0.311607
0.312231
0.312657
0.313102
0.0965937
0.113797
0.104331
0.0914228
0.088731
0.0911726
0.0973175
0.103294
0.107747
0.11091
0.112682
0.113767
0.113214
0.111656
0.108041
0.101549
0.0910343
0.0741846
0.0643385
0.142232
0.262533
0.279698
0.176934
0.144291
0.132742
0.133206
0.053718
0.0693967
0.0626801
0.127446
0.169738
0.344426
0.377653
0.319029
0.317094
0.0595781
0.161373
0.420234
0.544185
0.536213
0.338168
0.275235
0.214616
0.104242
0.051174
0.0538491
0.0620498
0.0933839
0.23862
0.314555
0.254378
0.148826
0.127122
0.150238
0.173795
0.195888
0.22089
0.242502
0.258259
0.266335
0.269207
0.268927
0.267461
0.267682
0.271319
0.278392
0.288372
0.297274
0.30157
0.302237
0.3013
0.299728
0.298701
0.298472
0.298996
0.300244
0.301792
0.303296
0.304694
0.305838
0.306851
0.307649
0.308434
0.309042
0.309741
0.310202
0.310873
0.311319
0.311802
0.0965985
0.113774
0.104298
0.0913694
0.0886188
0.0910324
0.0971261
0.103048
0.107415
0.110481
0.112124
0.112984
0.112273
0.110419
0.106341
0.0993243
0.0880576
0.0702149
0.059736
0.137236
0.245988
0.256152
0.151517
0.117265
0.102331
0.0985657
0.0552239
0.0739189
0.0723448
0.0680281
0.185461
0.325058
0.342006
0.299615
0.319423
0.0863771
0.199732
0.46653
0.568388
0.477964
0.291316
0.240826
0.204522
0.117413
0.0610227
0.0686589
0.0671075
0.0731057
0.0907241
0.188824
0.180673
0.111961
0.113225
0.134055
0.153764
0.177195
0.2106
0.239127
0.257793
0.269895
0.276683
0.279476
0.278817
0.27641
0.276073
0.279113
0.28627
0.292533
0.295178
0.295053
0.29366
0.292445
0.292232
0.292934
0.294618
0.296658
0.298736
0.300554
0.302132
0.303376
0.30447
0.305338
0.306203
0.306878
0.307653
0.308169
0.308911
0.309385
0.309936
0.0966053
0.113748
0.104251
0.0912897
0.0884755
0.0908552
0.0968802
0.102722
0.106982
0.109899
0.111397
0.111943
0.111027
0.108798
0.104149
0.0965223
0.0845267
0.0658589
0.0535085
0.125157
0.23016
0.241047
0.138509
0.105046
0.087287
0.0778459
0.0448405
0.0665672
0.067239
0.103696
0.25789
0.25043
0.275698
0.247251
0.285296
0.094129
0.197687
0.461517
0.556753
0.437273
0.276557
0.23236
0.21813
0.151084
0.0609069
0.0657648
0.0561847
0.1378
0.170556
0.169831
0.141115
0.114542
0.0973481
0.0955916
0.115267
0.156218
0.204127
0.242155
0.265392
0.27862
0.286053
0.287969
0.286306
0.281686
0.277615
0.276864
0.278431
0.279627
0.279692
0.279437
0.279479
0.280302
0.282208
0.284812
0.287816
0.290746
0.293458
0.295699
0.297576
0.299042
0.300332
0.301372
0.302401
0.303215
0.304127
0.304746
0.305621
0.306139
0.306838
0.0966115
0.11373
0.104215
0.091199
0.088347
0.0906967
0.0966644
0.102415
0.106587
0.109348
0.110728
0.110973
0.109876
0.107315
0.10218
0.0940872
0.0817701
0.0630717
0.0475085
0.104066
0.217488
0.240174
0.147532
0.109387
0.0923911
0.0841999
0.0323111
0.0458017
0.0840982
0.270327
0.348263
0.196733
0.205248
0.202115
0.235384
0.0883332
0.158191
0.431023
0.536529
0.443581
0.289121
0.254162
0.250141
0.199598
0.0689895
0.0696296
0.0604865
0.127549
0.187122
0.210028
0.163323
0.108601
0.0806694
0.0673565
0.0993846
0.154303
0.215739
0.261404
0.284325
0.291306
0.29163
0.29
0.28414
0.276067
0.270197
0.267279
0.264262
0.261708
0.260943
0.262111
0.26514
0.268891
0.272844
0.276668
0.280412
0.283865
0.287008
0.289629
0.291866
0.293654
0.295235
0.296518
0.297765
0.298758
0.299844
0.30059
0.301642
0.302203
0.303109
0.0966171
0.113721
0.10419
0.0911276
0.0882669
0.0905955
0.0965273
0.102208
0.106321
0.108981
0.110278
0.110328
0.10911
0.106329
0.100896
0.0925472
0.080164
0.0619719
0.044402
0.083576
0.205629
0.243007
0.165871
0.122841
0.107777
0.104375
0.0312076
0.0724699
0.201141
0.353478
0.367869
0.183101
0.138629
0.167411
0.194117
0.100588
0.156124
0.408268
0.520769
0.451911
0.314238
0.29486
0.295356
0.250702
0.0815412
0.0811003
0.05504
0.0967861
0.145172
0.170813
0.169262
0.105398
0.0738577
0.0663643
0.102362
0.16174
0.228922
0.278879
0.298271
0.29725
0.287108
0.273988
0.262813
0.25475
0.250965
0.249895
0.248307
0.247458
0.248605
0.252171
0.25689
0.261826
0.266451
0.270668
0.274667
0.278353
0.281762
0.284672
0.287205
0.289262
0.291081
0.292558
0.293979
0.295116
0.296341
0.297194
0.298394
0.298982
0.300082
0.0966229
0.113715
0.104165
0.0910694
0.0882055
0.0905234
0.096422
0.102056
0.10611
0.108709
0.10992
0.109858
0.108523
0.105582
0.0999083
0.0914658
0.0789649
0.0615075
0.0432377
0.0643346
0.188081
0.247144
0.195725
0.147859
0.136015
0.135814
0.0883962
0.176775
0.269687
0.372535
0.342315
0.182551
0.0944321
0.15001
0.174612
0.118144
0.157017
0.387928
0.505613
0.465723
0.33962
0.322064
0.333269
0.293613
0.0909716
0.0936448
0.0544489
0.114256
0.141635
0.159477
0.163024
0.109356
0.0776233
0.0713897
0.106146
0.166082
0.234731
0.285619
0.302924
0.296343
0.273192
0.251828
0.237614
0.231184
0.230515
0.232534
0.234777
0.237382
0.241223
0.24613
0.251423
0.256524
0.261253
0.265591
0.269719
0.273577
0.277212
0.28037
0.283156
0.285433
0.287453
0.289094
0.290666
0.291927
0.293277
0.294226
0.295556
0.296173
0.297445
0.0966295
0.113695
0.104127
0.0910247
0.0881541
0.0904673
0.0963373
0.10195
0.10595
0.108518
0.10965
0.109534
0.108099
0.105039
0.0991984
0.0907133
0.078128
0.0613044
0.0430233
0.052342
0.168143
0.247512
0.228388
0.173016
0.160442
0.195407
0.232508
0.252746
0.288697
0.362292
0.304613
0.17169
0.0705193
0.146899
0.182648
0.137985
0.159216
0.372425
0.491291
0.481603
0.359674
0.343206
0.365028
0.322753
0.100036
0.0981268
0.0660626
0.124783
0.146098
0.158727
0.159514
0.114685
0.0843475
0.0764686
0.10884
0.167205
0.235648
0.286067
0.299116
0.287187
0.258456
0.234528
0.220122
0.215298
0.216419
0.221274
0.226757
0.231944
0.23721
0.242553
0.247734
0.252596
0.25719
0.261544
0.265781
0.269786
0.2736
0.276944
0.279912
0.28235
0.284518
0.286284
0.287973
0.289331
0.290783
0.291809
0.29325
0.293897
0.295309
0.0966302
0.113692
0.104119
0.0910108
0.0881209
0.0904284
0.0962779
0.10188
0.105849
0.108394
0.109472
0.109323
0.107826
0.104686
0.0987534
0.0902221
0.0776279
0.0611621
0.0433941
0.0445637
0.153085
0.245954
0.246371
0.19893
0.18246
0.218386
0.267399
0.148094
0.117924
0.116032
0.112666
0.116555
0.135218
0.181643
0.218168
0.27016
0.261546
0.289236
0.339244
0.284734
0.169421
0.0629671
0.127524
0.168375
0.147368
0.127984
0.125765
0.101355
0.0336845
0.00969325
0.00870844
0.0110161
0.0171237
0.0625089
0.137537
0.158918
0.362499
0.484146
0.490744
0.370662
0.354097
0.389647
0.358705
0.197501
0.0621599
0.0641919
0.0906478
0.0993482
0.0635799
0.0500751
0.0440898
0.0622876
0.105465
0.0965303
0.0804242
0.127683
0.148298
0.162367
0.159232
0.118441
0.089373
0.0795514
0.109577
0.165674
0.231804
0.278275
0.288485
0.275118
0.246441
0.223568
0.210724
0.207231
0.20932
0.215685
0.222726
0.229126
0.234981
0.240373