/*--------------------------------*- C++ -*----------------------------------*\
| =========                 |                                                 |
| \\      /  F ield         | OpenFOAM: The Open Source CFD Toolbox           |
|  \\    /   O peration     | Version:  v2006                                 |
|   \\  /    A nd           | Website:  www.openfoam.com                      |
|    \\/     M anipulation  |                                                 |
\*---------------------------------------------------------------------------*/
FoamFile
{
    version     2.0;
    format      ascii;
    class       volScalarField;
    location    "0.51";
    object      p;
}
// * * * * * * * * * * * * * * * * * * * * * * * * * * * * * * * * * * * * * //

dimensions      [0 2 -2 0 0 0 0];


internalField   nonuniform List<scalar> 
374400
(
13.6883
13.5274
13.3147
13.1576
13.0304
12.9012
12.7646
12.6202
12.4697
12.316
12.1605
12.0038
11.8464
11.6887
11.5313
11.3741
11.2169
11.0594
10.9102
10.7785
10.6733
10.5946
10.5334
10.4899
10.4552
10.4291
10.4118
10.3859
10.3514
10.3084
10.2484
10.1887
10.1461
10.1121
10.0866
10.0697
10.0443
10.0106
9.96855
9.90994
9.85168
9.81027
9.77726
9.75256
9.7361
9.71148
9.67877
9.63798
9.59738
9.56503
9.52473
9.48461
9.45265
9.42875
9.41283
9.38901
9.35741
9.31804
9.26326
9.20898
9.17045
9.13977
9.11684
9.10156
9.07871
9.04843
9.01071
8.95827
8.90634
8.86948
8.84013
8.8182
8.80358
8.78172
8.75275
8.71666
8.66644
8.59535
8.49689
8.37158
8.22646
8.06763
7.89342
7.70157
7.49751
7.28858
7.07535
6.85839
6.63833
6.41568
6.19083
5.96407
5.73569
5.50595
5.27508
5.0433
4.81077
4.57767
4.34411
4.11019
3.876
3.64161
3.40707
3.17241
2.93767
2.70286
2.468
2.23311
1.99818
1.76322
1.52822
1.29319
1.05814
0.823061
0.58796
0.352935
0.115886
13.6911
13.5303
13.3176
13.1605
13.0334
12.9042
12.7677
12.6233
12.4728
12.3191
12.1636
12.0068
11.8493
11.6914
11.5337
11.3762
11.2186
11.0605
10.9108
10.7785
10.6728
10.5937
10.5323
10.4885
10.4536
10.4274
10.41
10.384
10.3493
10.3061
10.2458
10.1857
10.143
10.1088
10.0832
10.0662
10.0407
10.0068
9.96461
9.90573
9.84724
9.80567
9.77254
9.74775
9.73124
9.70653
9.67371
9.63279
9.59208
9.55964
9.51925
9.47906
9.44703
9.42309
9.40715
9.3833
9.35167
9.31226
9.25744
9.20314
9.16462
9.13396
9.11104
9.09578
9.07295
9.0427
9.00503
8.95267
8.90084
8.86407
8.83479
8.81292
8.79835
8.77656
8.74768
8.7117
8.66167
8.59086
8.49282
8.36808
8.22368
8.06565
7.89229
7.70125
7.49788
7.28946
7.07655
6.85979
6.63981
6.41717
6.19225
5.9654
5.7369
5.50703
5.27603
5.04411
4.81147
4.57825
4.34459
4.11059
3.87633
3.64187
3.40727
3.17256
2.9378
2.70297
2.46809
2.23319
1.99824
1.76327
1.52826
1.29323
1.05817
0.823083
0.587976
0.352948
0.115888
13.6969
13.536
13.3234
13.1664
13.0393
12.9103
12.7738
12.6295
12.4791
12.3254
12.1698
12.013
11.8552
11.697
11.5387
11.3805
11.2221
11.063
10.912
10.7786
10.6719
10.592
10.5299
10.4857
10.4504
10.424
10.4064
10.3801
10.3451
10.3014
10.2405
10.1798
10.1366
10.1021
10.0762
10.059
10.0333
9.99912
9.95649
9.89709
9.83811
9.79621
9.76284
9.73787
9.72124
9.69636
9.66333
9.62215
9.58121
9.54862
9.50804
9.46768
9.43554
9.41153
9.39555
9.37163
9.33992
9.30045
9.24558
9.19129
9.1528
9.12217
9.09929
9.08405
9.06127
9.03109
8.99354
8.94137
8.88978
8.85321
8.82409
8.80235
8.78786
8.7662
8.73751
8.70178
8.65211
8.58186
8.48469
8.36117
8.21826
8.06189
7.89023
7.70081
7.49877
7.29134
7.07909
6.86272
6.64291
6.42026
6.19523
5.96818
5.73943
5.50929
5.27801
5.04583
4.81292
4.57947
4.3456
4.11142
3.877
3.64241
3.40771
3.17293
2.93808
2.70319
2.46828
2.23334
1.99837
1.76338
1.52835
1.29331
1.05824
0.823132
0.588018
0.352973
0.115896
13.7055
13.5446
13.3321
13.1752
13.0483
12.9194
12.7831
12.639
12.4888
12.3352
12.1796
12.0227
11.8646
11.7059
11.547
11.3877
11.2279
11.0672
10.9144
10.7791
10.6708
10.5895
10.5265
10.4815
10.4456
10.4188
10.4009
10.3741
10.3385
10.294
10.2321
10.1703
10.1264
10.0913
10.0651
10.0476
10.0215
9.98676
9.94347
9.88319
9.82339
9.78094
9.74714
9.72187
9.70505
9.67988
9.64649
9.60488
9.56356
9.53068
9.48978
9.44914
9.41681
9.39268
9.37662
9.35261
9.32078
9.28119
9.22622
9.17191
9.13346
9.10289
9.08007
9.06489
9.0422
9.01216
8.97479
8.92295
8.87174
8.83548
8.80665
8.78513
8.77081
8.7494
8.72105
8.68576
8.63675
8.5675
8.47182
8.35034
8.20992
8.05624
7.88732
7.70045
7.50048
7.29452
7.08322
6.86735
6.64772
6.425
6.19973
5.97233
5.74318
5.5126
5.2809
5.0483
4.81502
4.58122
4.34704
4.11259
3.87795
3.64317
3.40831
3.17341
2.93847
2.70351
2.46854
2.23356
1.99856
1.76354
1.52849
1.29342
1.05833
0.823211
0.588071
0.353005
0.115908
13.7169
13.5561
13.3437
13.187
13.0604
12.9318
12.7958
12.6521
12.5022
12.3488
12.1934
12.0364
11.8782
11.7189
11.5591
11.3986
11.2371
11.0741
10.9186
10.7806
10.6699
10.5867
10.5221
10.4761
10.4393
10.4118
10.3934
10.366
10.3294
10.2839
10.2203
10.1571
10.1121
10.0762
10.0493
10.0314
10.0046
9.9691
9.92483
9.86325
9.80225
9.75901
9.72461
9.6989
9.68179
9.65621
9.62229
9.58008
9.53822
9.50495
9.46362
9.42263
9.39005
9.36576
9.3496
9.32544
9.29348
9.25376
9.19873
9.14451
9.10619
9.07576
9.05306
9.03796
9.01539
8.98557
8.94852
8.89722
8.84668
8.81094
8.78254
8.76136
8.74725
8.72617
8.6983
8.66364
8.61555
8.54773
8.45422
8.33575
8.19898
8.04924
7.88424
7.70092
7.50373
7.29969
7.08958
6.8743
6.65481
6.43191
6.20623
5.97829
5.74852
5.51731
5.28498
5.05177
4.81793
4.58363
4.34901
4.11418
3.87922
3.64418
3.40911
3.17403
2.93896
2.70391
2.46887
2.23384
1.9988
1.76375
1.52867
1.29358
1.05846
0.823312
0.588146
0.353051
0.115923
13.7311
13.5705
13.3582
13.2018
13.0756
12.9475
12.8121
12.6689
12.5196
12.3667
12.2117
12.055
11.8967
11.7371
11.5764
11.4145
11.2509
11.0849
10.9259
10.7842
10.67
10.584
10.5172
10.4696
10.4315
10.4029
10.3839
10.3555
10.3176
10.2704
10.2045
10.1389
10.0922
10.0551
10.0273
10.0088
9.98108
9.94434
9.89861
9.83507
9.77224
9.72777
9.69244
9.66606
9.64853
9.62232
9.5876
9.54447
9.50178
9.46792
9.42591
9.38433
9.35134
9.32681
9.31051
9.28617
9.25399
9.21406
9.15886
9.10462
9.06643
9.03618
9.01367
8.99871
8.9764
8.94693
8.91038
8.85985
8.8102
8.77521
8.74748
8.72686
8.71314
8.69268
8.66563
8.63204
8.58552
8.52003
8.42993
8.31602
8.18468
8.04065
7.88122
7.70276
7.5092
7.30751
7.09867
6.88388
6.66432
6.44095
6.21458
5.98582
5.75518
5.52309
5.28991
5.05594
4.8214
4.58648
4.35132
4.11602
3.88068
3.64532
3.41
3.17474
2.93952
2.70437
2.46925
2.23417
1.99909
1.764
1.5289
1.29378
1.05862
0.823441
0.588243
0.353107
0.115945
13.7481
13.5875
13.3755
13.2195
13.0939
12.9666
12.832
12.6897
12.5414
12.3895
12.2353
12.0795
11.9216
11.762
11.6007
11.4375
11.2714
11.1019
10.9384
10.7914
10.6724
10.5826
10.5126
10.4626
10.4226
10.3926
10.3726
10.3427
10.3029
10.2532
10.1839
10.115
10.066
10.027
9.99779
9.97839
9.94938
9.91091
9.86308
9.79676
9.73139
9.68525
9.64865
9.62137
9.60325
9.57619
9.54043
9.49609
9.45238
9.41779
9.37498
9.33278
9.29939
9.2746
9.25814
9.23358
9.20123
9.1612
9.10611
9.05235
9.01464
8.98479
8.96261
8.94787
8.92588
8.89698
8.86122
8.81203
8.76402
8.73027
8.70352
8.68361
8.67037
8.6506
8.62458
8.59232
8.54778
8.48533
8.39986
8.29231
8.16852
8.03232
7.88022
7.70789
7.51865
7.31952
7.11191
6.89735
6.67736
6.45314
6.22568
5.99572
5.76385
5.53056
5.29624
5.06121
4.82573
4.58997
4.3541
4.11821
3.88237
3.64662
3.411
3.1755
2.94012
2.70485
2.46967
2.23453
1.99942
1.76431
1.52917
1.29401
1.05882
0.823598
0.588358
0.353175
0.115973
13.7675
13.6071
13.3954
13.2401
13.1153
12.989
12.8557
12.7149
12.5681
12.4179
12.2655
12.1111
11.9545
11.7957
11.6345
11.4704
11.3021
11.1286
10.9592
10.8055
10.6797
10.5842
10.5095
10.456
10.4132
10.3811
10.3596
10.3275
10.2848
10.2314
10.1569
10.0829
10.0303
9.98852
9.9573
9.93656
9.90556
9.86449
9.81351
9.74299
9.67374
9.62503
9.58648
9.55782
9.53882
9.51048
9.4731
9.42687
9.38149
9.34573
9.30159
9.25826
9.2241
9.19886
9.18215
9.15728
9.12456
9.08422
9.02891
8.97523
8.93784
8.90847
8.88677
8.87241
8.85107
8.82301
8.7884
8.74097
8.69489
8.6628
8.63761
8.61899
8.60668
8.58836
8.56426
8.53447
8.49351
8.43633
8.3584
8.26078
8.14846
8.02378
7.88193
7.71756
7.53343
7.33688
7.13006
6.91517
6.69408
6.46839
6.23928
6.00761
5.77408
5.53922
5.30346
5.06713
4.83051
4.59378
4.35707
4.1205
3.88411
3.64793
3.41196
3.17623
2.9407
2.70534
2.4701
2.23494
1.9998
1.76466
1.5295
1.2943
1.05907
0.823798
0.588505
0.353254
0.116016
13.789
13.6289
13.4177
13.2632
13.1395
13.0147
12.8832
12.7444
12.6
12.4524
12.3028
12.1511
11.9972
11.8408
11.6812
11.5175
11.3478
11.1704
10.9942
10.8314
10.6961
10.5924
10.5108
10.4521
10.405
10.3696
10.346
10.3106
10.2633
10.2043
10.1219
10.0401
9.98216
9.93617
9.90191
9.87918
9.84525
9.80039
9.74485
9.6683
9.59363
9.54146
9.50035
9.4699
9.44975
9.41978
9.3804
9.33194
9.28475
9.24773
9.20231
9.15814
9.12353
9.0981
9.08128
9.05629
9.02369
8.98376
8.92965
8.87797
8.84221
8.81408
8.79332
8.77953
8.75902
8.7324
8.69976
8.65551
8.61324
8.58387
8.56067
8.54352
8.5321
8.5151
8.49302
8.46588
8.42891
8.37796
8.30974
8.22564
8.12924
8.0201
7.89125
7.73617
7.5573
7.36278
7.15577
6.9394
6.71617
6.48799
6.25644
6.02242
5.7867
5.54976
5.31211
5.07411
4.83603
4.59807
4.36034
4.12295
3.88588
3.64917
3.41284
3.17686
2.94119
2.70576
2.47051
2.23534
2.00021
1.76506
1.52988
1.29464
1.05937
0.824035
0.588675
0.353333
0.11607
13.8115
13.6516
13.4411
13.2875
13.1652
13.0423
12.9131
12.7771
12.6359
12.492
12.3465
12.1994
12.0502
11.8985
11.7431
11.5825
11.4139
11.2341
11.0509
10.8769
10.7285
10.6127
10.5206
10.4539
10.4003
10.3598
10.3328
10.2923
10.2381
10.1704
10.0759
9.98241
9.91662
9.86459
9.82597
9.80036
9.76214
9.71177
9.64965
9.56452
9.48215
9.42496
9.38002
9.34681
9.32487
9.29227
9.24962
9.19738
9.14684
9.10747
9.05948
9.01326
8.97736
8.95122
8.93407
8.90872
8.87576
8.83565
8.78167
8.7304
8.69535
8.66824
8.64849
8.63558
8.61651
8.59154
8.5611
8.52007
8.48122
8.4551
8.43522
8.42092
8.41162
8.39798
8.38027
8.35877
8.32998
8.29109
8.24024
8.17922
8.10859
8.0227
7.91104
7.76627
7.59175
7.39768
7.1889
6.96961
6.743
6.51148
6.27661
6.0395
5.80092
5.5614
5.32145
5.08146
4.84171
4.60236
4.36352
4.12521
3.88742
3.65019
3.41347
3.17729
2.94154
2.70612
2.47091
2.23579
2.00069
1.76555
1.53034
1.29507
1.05974
0.824331
0.588897
0.353432
0.116145
13.8332
13.6736
13.4637
13.3113
13.1905
13.0697
12.9432
12.8105
12.6733
12.534
12.394
12.2532
12.1111
11.9669
11.8195
11.6663
11.5033
11.3254
11.1375
10.9517
10.7867
10.6541
10.5465
10.4677
10.4037
10.3552
10.3228
10.2739
10.2086
10.127
10.0132
9.90138
9.82349
9.7624
9.71743
9.68779
9.64372
9.58587
9.51505
9.41903
9.32733
9.26418
9.21485
9.17861
9.1547
9.11926
9.07324
9.01725
8.96404
8.92304
8.87371
8.82757
8.79235
8.76713
8.75059
8.7263
8.69567
8.65922
8.612
8.56927
8.54025
8.51732
8.50035
8.48889
8.47178
8.45017
8.4238
8.38842
8.35536
8.33249
8.31431
8.30107
8.29218
8.27902
8.26299
8.24426
8.22087
8.19251
8.16142
8.13052
8.09454
8.03827
7.94663
7.81229
7.64039
7.44396
7.23039
7.00572
6.7739
6.53766
6.29858
6.05775
5.81592
5.57353
5.33104
5.08883
4.84724
4.60641
4.36637
4.1271
3.88854
3.65078
3.41367
3.17736
2.94162
2.7063
2.47121
2.23621
2.00119
1.76607
1.53086
1.29555
1.06016
0.824668
0.589152
0.353544
0.116272
13.8535
13.6942
13.4849
13.3336
13.2145
13.0959
12.9723
12.8432
12.7104
12.5766
12.4432
12.3102
12.1775
12.0443
11.9093
11.7692
11.6189
11.4506
11.2643
11.0684
10.8821
10.7244
10.5917
10.493
10.4127
10.3518
10.3114
10.2506
10.1686
10.0665
9.92532
9.78996
9.69832
9.62749
9.5756
9.54137
9.49067
9.42519
9.34575
9.23913
9.13746
9.06641
9.00974
8.96723
8.9391
8.89742
8.84292
8.77664
8.71437
8.66793
8.61393
8.5653
8.52988
8.50562
8.49032
8.46865
8.44158
8.40998
8.36981
8.33192
8.30439
8.28256
8.26654
8.25626
8.24092
8.21958
8.19324
8.15797
8.12568
8.1059
8.09254
8.08388
8.07884
8.07201
8.06333
8.05406
8.04478
8.03893
8.04524
8.06912
8.09072
8.0761
8.00537
7.87624
7.70104
7.49822
7.27812
7.0466
6.80865
6.56704
6.3231
6.07794
5.83224
5.58647
5.34099
5.09623
4.85259
4.61019
4.36891
4.12868
3.88937
3.65103
3.41368
3.1772
2.94154
2.70642
2.47155
2.23673
2.00181
1.76674
1.53151
1.29614
1.06068
0.825086
0.589473
0.353694
0.116411
13.8719
13.7127
13.5041
13.3538
13.2364
13.1201
12.9994
12.874
12.7458
12.6178
12.4916
12.3676
12.246
12.1267
12.0086
11.8887
11.7608
11.6143
11.4416
11.243
11.035
10.8486
10.6868
10.564
10.4624
10.3838
10.3307
10.249
10.1348
9.98756
9.78181
9.59178
9.4681
9.37658
9.31362
9.27345
9.21596
9.14596
9.06676
8.9688
8.88196
8.82192
8.7721
8.73222
8.70469
8.66259
8.60512
8.53242
8.46296
8.41125
8.35152
8.30072
8.2656
8.24279
8.22858
8.20895
8.18773
8.16669
8.14872
8.14277
8.13971
8.13679
8.1344
8.13197
8.12801
8.12301
8.11363
8.08706
8.04376
8.01238
7.98643
7.96675
7.95392
7.93543
7.91374
7.89171
7.87232
7.86685
7.9027
7.99462
8.09276
8.13115
8.08665
7.96304
7.78038
7.56571
7.33297
7.09067
6.84416
6.59592
6.3468
6.09724
5.84782
5.59878
5.35036
5.10304
4.85735
4.61344
4.371
4.12984
3.88979
3.65084
3.41311
3.17662
2.94118
2.70639
2.47186
2.23729
2.00252
1.76749
1.53224
1.29681
1.06126
0.825554
0.589843
0.353879
0.116563
13.8871
13.7281
13.5199
13.3706
13.2546
13.1403
13.0222
12.9002
12.7764
12.6538
12.5345
12.4193
12.3091
12.2045
12.1055
12.0104
11.9135
11.8027
11.6606
11.4695
11.2391
11.0132
10.7945
10.6025
10.4267
10.2805
10.1791
10.0247
9.82543
9.59832
9.34827
9.1757
9.08547
9.02303
8.9803
8.95431
8.91751
8.87007
8.81232
8.7321
8.64908
8.57102
8.4941
8.42586
8.37731
8.30323
8.20314
8.0814
7.98395
7.92539
7.87003
7.84038
7.83128
7.83318
7.83738
7.84705
7.86688
7.89976
7.94749
7.94238
7.91275
7.88609
7.86665
7.85124
7.82291
7.78611
7.75239
7.72524
7.70211
7.68431
7.66986
7.65994
7.65343
7.64405
7.6365
7.63221
7.63827
7.67012
7.76788
7.94616
8.12324
8.21339
8.18926
8.06086
7.8626
7.63199
7.38638
7.13369
6.87882
6.62413
6.37001
6.1165
5.86368
5.61138
5.35981
5.10968
4.86176
4.61635
4.37287
4.13087
3.89
3.65038
3.4123
3.17584
2.9407
2.70633
2.4722
2.2379
2.00328
1.76829
1.533
1.29749
1.06184
0.826021
0.590213
0.354064
0.116736
13.8986
13.7395
13.5315
13.3831
13.2682
13.1555
13.0394
12.9201
12.7996
12.6814
12.5677
12.4597
12.359
12.267
12.185
12.1131
12.0482
11.9788
11.8807
11.7126
11.4541
11.1358
10.7607
10.4164
10.1383
9.94654
9.82526
9.66412
9.50774
9.35454
9.14626
8.97529
8.89175
8.82241
8.76148
8.71864
8.65636
8.59578
8.54749
8.53951
8.55491
8.50433
8.41609
8.314
8.23325
8.0994
7.88942
7.60628
7.41766
7.3406
7.29921
7.32228
7.37186
7.42371
7.46225
7.52662
7.63576
7.79103
8.0269
8.30233
8.40136
8.40287
8.35066
8.30136
8.2106
8.06749
7.88538
7.66865
7.5175
7.42829
7.36596
7.32903
7.30828
7.28241
7.26051
7.2482
7.26289
7.34322
7.55964
7.89345
8.18185
8.32461
8.30975
8.16456
7.94198
7.69081
7.42997
7.16625
6.90363
6.6437
6.38659
6.1313
5.8765
5.62164
5.36736
5.11483
4.86518
4.61878
4.37459
4.13206
3.89044
3.6501
3.41153
3.17498
2.94009
2.70613
2.47239
2.23837
2.00389
1.76894
1.53362
1.29804
1.06231
0.826385
0.590502
0.354187
0.116902
13.9065
13.7472
13.5394
13.3916
13.2776
13.1658
13.0512
12.9337
12.8157
12.7005
12.5908
12.4881
12.3941
12.3113
12.2419
12.1875
12.148
12.1142
12.0606
11.9222
11.634
11.21
10.7414
10.3819
10.1211
9.93999
9.82228
9.67734
9.53725
9.30819
8.90722
8.62397
8.48962
8.39863
8.33486
8.30013
8.26495
8.24759
8.27625
8.46132
8.70867
8.69831
8.54851
8.28461
8.0587
7.68775
7.24477
6.82636
6.67813
6.67861
6.74378
6.84022
6.92681
6.99462
7.04503
7.14534
7.36071
7.74386
8.19837
8.09369
7.85712
7.71047
7.63543
7.59413
7.54964
7.52686
7.51698
7.50552
7.48089
7.45504
7.43318
7.41664
7.40597
7.3897
7.3672
7.34177
7.33025
7.37661
7.58722
7.955
8.27667
8.43519
8.41676
8.25178
8.00659
7.73648
7.4618
7.1882
6.91923
6.65632
6.39853
6.1431
5.88721
5.63024
5.37365
5.11938
4.86866
4.6217
4.37723
4.13397
3.89153
3.65035
3.41116
3.17434
2.93953
2.70585
2.47242
2.23864
2.00429
1.76939
1.53406
1.29842
1.06263
0.82662
0.590691
0.354233
0.117055
13.9118
13.7524
13.5446
13.3973
13.2839
13.1728
13.0592
12.943
12.8266
12.7136
12.6066
12.5074
12.4182
12.3417
12.281
12.2389
12.2173
12.2096
12.1915
12.0744
11.7746
11.3367
10.9631
10.6749
10.4492
10.2542
10.0605
9.75486
9.32888
8.82871
8.38865
8.31012
8.27835
8.21502
8.14069
8.08959
8.02342
7.97194
7.98633
8.25401
8.65352
8.62192
8.34907
7.92855
7.59619
7.08306
6.56118
6.2152
6.27066
6.42414
6.60755
6.74384
6.84622
6.93984
7.00837
7.11052
7.23369
7.37672
7.44392
7.30946
7.31104
7.39116
7.47792
7.52448
7.58853
7.65333
7.69714
7.68911
7.63508
7.58065
7.5305
7.49167
7.46606
7.42941
7.40214
7.37798
7.35041
7.36962
7.59307
7.99685
8.34468
8.51717
8.49605
8.31701
8.05373
7.76844
7.48292
7.20233
6.92979
6.66572
6.4077
6.15183
5.89479
5.63639
5.37864
5.12386
4.87289
4.62561
4.38085
4.13644
3.89286
3.65063
3.41074
3.17364
2.93889
2.70546
2.4723
2.23874
2.00453
1.76967
1.53433
1.29866
1.06283
0.826759
0.590805
0.354227
0.117177
13.9155
13.7559
13.5482
13.4013
13.2882
13.1777
13.0647
12.9494
12.8342
12.7227
12.6176
12.521
12.4351
12.3629
12.3083
12.2746
12.2655
12.2763
12.2836
12.1832
11.8866
11.5234
11.2874
11.0313
10.7784
10.4997
10.0928
9.37221
8.63651
8.26056
8.06684
8.17668
8.20735
8.18813
8.13466
8.08916
8.00983
7.95175
7.92632
8.2242
8.66198
8.55899
8.28283
7.76912
7.30495
6.6253
6.0593
5.87364
6.0962
6.31659
6.57046
6.77161
6.89249
6.96701
7.01506
7.0666
7.08192
7.01587
6.85903
7.01159
7.32952
7.66485
7.88208
7.95129
7.96577
7.94358
7.91468
7.83645
7.72569
7.62474
7.52853
7.4498
7.39782
7.3341
7.28304
7.22382
7.16864
7.21571
7.5278
7.99896
8.38124
8.57141
8.55194
8.36331
8.08662
7.7906
7.49806
7.21378
6.93966
6.67485
6.41607
6.1589
5.90039
5.64085
5.38258
5.12794
4.87704
4.62961
4.38416
4.13873
3.89383
3.65063
3.41017
3.17288
2.93824
2.70505
2.47214
2.23876
2.00466
1.76984
1.53451
1.29882
1.06296
0.826838
0.59087
0.354197
0.117274
13.9184
13.7587
13.551
13.4044
13.2916
13.1815
13.069
12.9544
12.8401
12.7298
12.6262
12.5316
12.4483
12.3796
12.3297
12.3025
12.303
12.3282
12.3548
12.2699
11.99
11.7361
11.6778
11.4467
11.1145
10.1716
9.27058
8.61262
8.02235
8.06259
8.10318
8.17284
8.16728
8.14178
8.08698
8.03685
7.95433
7.90054
7.8852
8.15213
8.55042
8.50325
8.15445
7.32049
6.68484
6.17833
5.86893
6.07105
6.24296
6.35892
6.60463
6.81815
6.93465
7.01042
7.07008
7.0973
7.00266
6.72656
6.54345
7.07051
7.70828
8.18885
8.26678
8.20517
8.04254
7.83265
7.71867
7.66243
7.57687
7.46517
7.33712
7.20461
7.10271
7.01888
6.98326
6.91524
6.87245
6.99711
7.43449
7.98229
8.4001
8.60937
8.59418
8.39889
8.11216
7.80862
7.51144
7.22493
6.94976
6.68403
6.42404
6.16515
5.9051
5.64464
5.38607
5.13165
4.88082
4.63323
4.38696
4.14044
3.89444
3.6504
3.4095
3.17212
2.93761
2.70464
2.47196
2.23875
2.00474
1.76996
1.53463
1.29892
1.06304
0.826889
0.590912
0.354157
0.117352
13.9204
13.7607
13.553
13.4067
13.2941
13.1842
13.0722
12.9581
12.8445
12.7351
12.6326
12.5394
12.458
12.3918
12.3453
12.3229
12.33
12.3653
12.4053
12.3325
12.0766
11.929
12.0436
11.9899
11.8579
9.7527
6.87248
8.38143
7.91473
8.17522
8.10797
8.16917
8.15666
8.12268
8.07117
8.03038
7.94635
7.88997
7.85781
8.05817
8.43142
8.3899
8.07855
6.7911
5.43594
6.08802
5.84834
6.06458
6.22822
6.38791
6.64607
6.86372
6.95043
6.92859
7.11091
7.16454
6.97498
6.55399
6.49854
7.36708
8.2638
8.76358
8.31179
7.53745
7.75978
7.70345
7.6516
7.62644
7.5454
7.42327
7.25596
6.9744
6.69794
6.76704
6.71728
6.58826
6.55248
6.7678
7.33624
7.95479
8.40433
8.63213
8.62303
8.42414
8.13121
7.8232
7.52325
7.23531
6.95923
6.6924
6.4309
6.17024
5.90885
5.64771
5.38897
5.13479
4.88394
4.63594
4.38892
4.14151
3.89465
3.64999
3.4088
3.1714
2.93704
2.70428
2.47179
2.23871
2.00478
1.77003
1.53471
1.29899
1.06309
0.826914
0.590933
0.354115
0.117409
13.9218
13.762
13.5544
13.4081
13.2957
13.186
13.0743
12.9605
12.8473
12.7385
12.6368
12.5445
12.4644
12.3999
12.3555
12.3362
12.3477
12.3894
12.4378
12.372
12.1334
12.0615
12.2907
12.4265
12.5049
11.2775
8.01082
7.93519
7.88274
7.83309
7.99331
8.29918
8.23784
8.00608
7.22689
7.25747
7.23347
6.9703
6.46208
6.51855
7.62302
8.67429
9.17253
8.83111
6.30135
6.66913
6.57088
6.3894
6.33676
6.60382
7.2634
7.93121
8.40349
8.64511
8.64124
8.44042
8.14404
7.83342
7.53179
7.24288
6.96612
6.69842
6.43571
6.17376
5.91143
5.64986
5.39102
5.13684
4.88593
4.63761
4.39009
4.14209
3.89468
3.64963
3.40827
3.17089
2.93664
2.70403
2.47166
2.23868
2.00479
1.77007
1.53475
1.29903
1.06312
0.826927
0.590943
0.354084
0.117446
13.9237
13.764
13.5565
13.4103
13.2981
13.1887
13.0774
12.9641
12.8516
12.7436
12.643
12.5521
12.4738
12.4118
12.3707
12.3558
12.3735
12.4246
12.4855
12.429
12.2252
12.2696
12.664
13.0494
13.308
12.9849
7.98445
7.91696
7.85765
7.7584
7.86369
8.03002
8.0088
7.95239
7.6993
7.30629
7.27779
6.95774
6.37203
6.64053
8.06131
9.262
9.65119
9.3862
6.62919
6.59562
6.39185
6.14638
6.03398
6.35638
7.14809
7.88876
8.39656
8.66128
8.66722
8.46423
8.16393
7.84993
7.54591
7.25549
6.9775
6.70821
6.44338
6.1794
5.91563
5.65328
5.39441
5.14007
4.88885
4.63994
4.39161
4.14275
3.89456
3.64898
3.4074
3.17006
2.936
2.70361
2.47145
2.23861
2.00481
1.77012
1.53481
1.29908
1.06316
0.826941
0.590949
0.354032
0.117498
13.9262
13.7666
13.5592
13.4131
13.3012
13.1922
13.0814
12.9688
12.8571
12.7502
12.651
12.562
12.4861
12.4272
12.3902
12.3808
12.4062
12.4685
12.5445
12.5019
12.3545
12.5314
13.1025
13.6868
14.0947
14.0202
7.9475
7.86982
7.77513
7.61583
7.63086
7.73935
7.80608
7.99045
7.97647
7.37882
7.33578
6.94888
6.35039
6.90328
8.59619
9.82835
9.92491
9.60999
6.43966
6.39916
6.20115
5.93918
5.75813
6.08915
7.00408
7.82132
8.37521
8.6761
8.69867
8.49485
8.19298
7.87527
7.56817
7.27531
6.99486
6.72274
6.45474
6.18784
5.92218
5.65898
5.39978
5.14478
4.89257
4.64245
4.39285
4.14292
3.89388
3.64778
3.40604
3.16883
2.93506
2.70301
2.47112
2.23848
2.00479
1.77015
1.53485
1.29911
1.06318
0.826937
0.59094
0.353941
0.117564
13.9293
13.7698
13.5625
13.4164
13.3049
13.1964
13.0862
12.9744
12.8638
12.7583
12.6608
12.574
12.501
12.4458
12.4137
12.4107
12.4446
12.5186
12.611
12.588
12.5003
12.802
13.5155
14.2269
14.7161
14.7364
7.88086
7.82924
7.70135
7.55683
7.5301
7.57996
7.71866
8.1276
8.26523
7.53633
7.48148
7.03925
6.48218
7.21678
9.05386
10.2202
9.98197
9.65209
6.41905
6.29388
6.08004
5.83697
5.58377
5.90275
6.85515
7.72661
8.34131
8.68974
8.73513
8.54363
8.23111
7.9104
7.59996
7.30343
7.01896
6.74247
6.47009
6.19968
5.9316
5.6674
5.40748
5.15098
4.89691
4.64485
4.39358
4.14245
3.89261
3.64606
3.40423
3.16723
2.93384
2.7022
2.47066
2.23825
2.0047
1.77013
1.53486
1.29911
1.06317
0.826902
0.590905
0.353797
0.117651
13.9333
13.7739
13.5668
13.4209
13.3098
13.202
13.0927
12.982
12.8727
12.769
12.6738
12.59
12.5208
12.4705
12.4446
12.4493
12.4926
12.5784
12.6881
12.6944
12.6512
13.0176
13.8003
14.5713
15.1016
15.1417
7.8722
7.88133
7.85238
7.78431
7.71935
7.75413
7.9485
8.49433
8.78952
8.00871
7.90986
7.48862
6.89355
7.39601
9.09044
10.0941
9.65153
9.38243
6.55123
6.40029
6.24995
6.06497
5.81836
5.95506
6.7655
7.60855
8.27123
8.66385
8.74406
8.575
8.27973
7.96377
7.65139
7.34948
7.05803
6.77417
6.49476
6.21873
5.94719
5.68114
5.41938
5.15987
4.90259
4.64761
4.39382
4.14107
3.89042
3.64355
3.40179
3.16511
2.93219
2.70103
2.46989
2.23778
2.00442
1.76996
1.53474
1.29902
1.06309
0.826786
0.590805
0.353514
0.117794
13.9371
13.7777
13.5706
13.4251
13.3144
13.2072
13.0986
12.9889
12.881
12.7789
12.6859
12.6048
12.5391
12.4931
12.4725
12.4833
12.5328
12.624
12.7433
12.7779
12.7192
12.9964
13.7116
14.4718
15.0289
15.081
7.97385
7.99197
8.01257
7.94822
8.00759
8.22768
8.41168
8.89129
9.35884
8.37067
8.22946
7.86074
7.21904
7.41139
8.84022
9.61247
8.94461
8.71241
6.33812
6.25773
6.23247
6.19671
6.14175
6.33321
6.89711
7.58568
8.1914
8.58491
8.70594
8.59249
8.33038
8.02428
7.70977
7.40057
7.10018
6.80722
6.51925
6.23625
5.96005
5.69075
5.42609
5.16429
4.90526
4.64917
4.39432
4.14064
3.88926
3.64203
3.40015
3.16353
2.93083
2.69993
2.46901
2.23708
2.00388
1.76955
1.53443
1.29877
1.06288
0.826562
0.590627
0.3531
0.117972
13.9396
13.7802
13.5732
13.4279
13.3175
13.2107
13.1026
12.9936
12.8865
12.7856
12.694
12.6147
12.5513
12.5082
12.4909
12.5053
12.5578
12.6499
12.7702
12.8288
12.7471
12.88
13.4284
14.0801
14.6157
14.625
7.90119
7.95646
7.99608
8.01275
8.25178
8.66917
8.75119
9.00125
9.52201
8.41852
8.25429
7.93459
7.31785
7.35269
8.46499
8.91517
8.15554
7.99346
6.25018
6.20624
6.20173
6.19033
6.2008
6.39982
6.95773
7.5966
8.14277
8.53186
8.69234
8.61964
8.37761
8.07488
7.75517
7.43812
7.12968
6.82886
6.5338
6.24558
5.96587
5.69395
5.42752
5.16463
4.90605
4.6502
4.39526
4.14125
3.88941
3.6417
3.39945
3.16269
2.93001
2.69919
2.46837
2.23653
2.00342
1.76918
1.53414
1.29853
1.06268
0.826357
0.590469
0.35275
0.118119
13.9416
13.782
13.5751
13.4301
13.3199
13.2133
13.1056
12.9971
12.8907
12.7906
12.7001
12.6222
12.5606
12.5195
12.5048
12.5217
12.576
12.6678
12.7854
12.8604
12.7742
12.7615
13.0928
13.5399
13.9506
13.7599
7.97676
7.99808
8.04628
8.16291
8.51291
8.94563
8.94458
8.98055
9.4345
8.31154
8.16069
7.89152
7.32493
7.24112
7.98763
8.14613
7.45292
7.33839
6.2162
6.20837
6.22311
6.20711
6.24432
6.45391
6.97069
7.58912
8.11164
8.50547
8.69562
8.65016
8.42003
8.11654
7.7905
7.46614
7.15077
6.84355
6.54326
6.25159
5.96977
5.6964
5.42894
5.16585
4.90716
4.65124
4.39629
4.14203
3.8898
3.64166
3.39909
3.16215
2.92943
2.69864
2.46787
2.23608
2.00303
1.76885
1.53387
1.29832
1.0625
0.826172
0.590325
0.352451
0.118237
13.9429
13.7834
13.5765
13.4316
13.3215
13.2152
13.1078
12.9997
12.8937
12.7942
12.7045
12.6276
12.5671
12.5276
12.5146
12.5332
12.5886
12.6796
12.7939
12.8746
12.8054
12.6904
12.8003
12.9526
13.1974
11.9929
7.42854
8.08445
8.24471
8.39834
8.73242
9.02114
9.01745
8.99673
9.3577
8.11673
8.03473
7.81586
7.30725
7.141
7.60577
7.60898
6.97196
6.74094
6.19031
6.23775
6.21907
6.21275
6.26847
6.48716
6.97508
7.57222
8.09259
8.49487
8.70498
8.67459
8.44964
8.14385
7.81265
7.48294
7.16283
6.85159
6.54839
6.25513
5.97245
5.69854
5.43062
5.16732
4.90846
4.65236
4.39725
4.14275
3.89021
3.64176
3.39893
3.16184
2.92907
2.69828
2.46752
2.23575
2.00273
1.76859
1.53366
1.29814
1.06235
0.826022
0.590207
0.352219
0.118318
13.9438
13.7842
13.5774
13.4326
13.3226
13.2164
13.1091
13.0013
12.8957
12.7966
12.7073
12.6311
12.5714
12.5328
12.5209
12.5406
12.5966
12.687
12.7987
12.8811
12.83
12.6663
12.6261
12.5366
12.5079
10.3043
6.79322
8.0308
8.01067
8.76342
9.22854
9.33957
9.24118
9.05859
8.65133
8.16071
8.34637
8.47414
8.60347
8.86617
9.01321
9.0305
8.94864
9.02213
8.70658
8.58743
8.38605
8.17496
8.15494
8.13202
8.10114
7.95382
8.01053
7.76955
7.98445
7.94717
7.76275
7.3017
7.08604
7.37042
7.29117
6.70748
6.28991
5.92922
6.38592
6.1337
5.96849
5.90605
6.12672
6.17704
6.19227
5.99431
6.1862
6.25536
6.19869
6.21191
6.28538
6.50911
6.97669
7.5568
8.07903
8.4886
8.71061
8.68893
8.46654
8.15907
7.82483
7.49206
7.16927
6.8559
6.55121
6.25725
5.97422
5.70007
5.43191
5.16847
4.90947
4.6532
4.39792
4.14324
3.89051
3.64186
3.39886
3.16167
2.92886
2.69807
2.4673
2.23554
2.00254
1.76842
1.53351
1.29802
1.06225
0.825921
0.590123
0.352068
0.118364
13.945
13.7855
13.5787
13.434
13.3241
13.2181
13.1112
13.0037
12.8985
12.8
12.7115
12.6361
12.5776
12.5404
12.5301
12.5513
12.6083
12.6977
12.8045
12.8861
12.8613
12.6547
12.4139
12.0541
11.6489
10.6805
9.61948
8.7243
8.43373
8.8474
9.24543
9.33707
9.27258
9.17132
9.06991
8.98388
8.90555
8.87442
8.96379
9.0191
8.97055
8.99001
8.89674
8.78629
8.64817
8.44773
8.24495
8.12222
8.14697
8.139
8.10716
7.96137
7.9994
7.93975
7.94871
7.85393
7.69561
7.29786
7.01454
7.05464
6.88928
6.46046
6.39088
6.41882
6.39486
6.19156
5.97306
5.91243
6.13669
6.26077
6.23584
6.148
6.21105
6.25437
6.15841
6.22276
6.33052
6.55111
6.97874
7.52913
8.05677
8.47958
8.71762
8.70562
8.48593
8.17636
7.83873
7.50232
7.17638
6.86059
6.55436
6.25985
5.97666
5.70242
5.43407
5.17044
4.91117
4.65457
4.39898
4.144
3.89099
3.64204
3.3988
3.16146
2.92858
2.69777
2.467
2.23524
2.00225
1.76816
1.53329
1.29783
1.06209
0.825767
0.58999
0.351849
0.118416
13.9465
13.7872
13.5805
13.4357
13.326
13.2203
13.1137
13.0066
12.902
12.8042
12.7166
12.6424
12.5853
12.5499
12.5415
12.5648
12.6228
12.7109
12.8104
12.8845
12.8783
12.7014
12.3457
11.8954
11.4386
11.0602
10.6309
9.9684
9.60097
9.46594
9.41166
9.45565
9.50196
9.53631
9.53271
9.48305
9.34921
9.25018
9.30111
9.12616
8.95026
8.89815
8.79386
8.62248
8.45378
8.20377
8.02606
7.97563
8.07892
8.10429
8.06979
7.97976
7.96508
7.90464
7.90859
7.8087
7.67119
7.32545
6.97908
6.80158
6.59435
6.34113
6.41867
6.47024
6.406
6.23157
6.01295
5.95138
6.14391
6.29281
6.30773
6.26635
6.25945
6.21546
6.17081
6.28523
6.43554
6.62917
6.97685
7.47739
8.01274
8.45074
8.70277
8.70453
8.49438
8.1866
7.84798
7.50896
7.18055
6.86263
6.55601
6.2615
5.97901
5.70532
5.43715
5.17344
4.9138
4.65662
4.40046
4.14502
3.89163
3.64234
3.39883
3.16132
2.92835
2.69748
2.46668
2.23489
2.00191
1.76784
1.53301
1.29758
1.06187
0.825559
0.589809
0.351562
0.118474
13.9483
13.7891
13.5825
13.4377
13.3283
13.2229
13.1167
13.0101
12.9061
12.8092
12.7226
12.6498
12.5943
12.5609
12.5548
12.5804
12.6399
12.7269
12.8187
12.8778
12.8651
12.7572
12.4988
12.1152
11.7121
11.3601
11.0747
10.6462
10.1921
9.76455
9.47508
9.51387
9.57296
9.5771
9.53518
9.49154
9.43873
9.50802
9.56894
9.21686
8.89668
8.73872
8.5986
8.45098
8.34176
8.18854
8.10294
8.10173
8.09258
8.07947
8.04613
8.00746
7.94905
7.889
7.85137
7.77523
7.64811
7.39079
6.99414
6.6801
6.45835
6.31594
6.39393
6.42625
6.38585
6.23317
6.0374
5.96849
6.08829
6.19334
6.24003
6.25088
6.2521
6.22531
6.26783
6.39682
6.55294
6.71103
6.97358
7.4287
7.96918
8.42713
8.69029
8.70363
8.50277
8.19737
7.85737
7.51461
7.18198
6.86183
6.55477
6.26149
5.98089
5.70848
5.44087
5.17723
4.91717
4.65926
4.4023
4.14626
3.89241
3.64273
3.39894
3.16128
2.92823
2.69729
2.46641
2.23456
2.00154
1.76748
1.53268
1.29729
1.06161
0.825306
0.58959
0.351221
0.118544
13.9505
13.7914
13.5849
13.4402
13.3311
13.226
13.1204
13.0144
12.9113
12.8153
12.7301
12.6589
12.6056
12.5746
12.5715
12.6003
12.6624
12.7499
12.8362
12.8802
12.8513
12.7654
12.6041
12.3419
12.0271
11.7059
11.4471
11.0145
10.4909
9.99507
9.62323
9.60184
9.70308
9.77137
9.78786
9.80816
9.92603
10.1225
9.97174
9.23077
8.63903
8.40087
8.22031
8.13503
8.11608
8.08282
8.05051
8.05382
8.06508
8.04349
7.99085
7.90714
7.8367
7.77447
7.73354
7.66991
7.58946
7.43276
7.09454
6.74767
6.55604
6.47882
6.46829
6.43597