/*--------------------------------*- C++ -*----------------------------------*\
| =========                 |                                                 |
| \\      /  F ield         | OpenFOAM: The Open Source CFD Toolbox           |
|  \\    /   O peration     | Version:  v2006                                 |
|   \\  /    A nd           | Website:  www.openfoam.com                      |
|    \\/     M anipulation  |                                                 |
\*---------------------------------------------------------------------------*/
FoamFile
{
    version     2.0;
    format      ascii;
    class       volScalarField;
    location    "0.56";
    object      k;
}
// * * * * * * * * * * * * * * * * * * * * * * * * * * * * * * * * * * * * * //

dimensions      [0 2 -2 0 0 0 0];


internalField   nonuniform List<scalar> 
374400
(
0.0969631
0.116001
0.107623
0.0955161
0.0937991
0.0969408
0.104915
0.113875
0.121737
0.128362
0.134309
0.139815
0.145074
0.150149
0.155223
0.160279
0.165354
0.170425
0.17526
0.179571
0.183092
0.185781
0.187908
0.189452
0.190698
0.191642
0.192275
0.193229
0.194519
0.196155
0.198509
0.200921
0.202677
0.204092
0.205163
0.205877
0.206954
0.208401
0.210219
0.2128
0.215394
0.217263
0.218752
0.219872
0.220613
0.221731
0.223221
0.225086
0.226941
0.228423
0.230255
0.232082
0.233523
0.234597
0.235306
0.236368
0.237777
0.23952
0.241938
0.2443
0.245975
0.247291
0.248273
0.24892
0.249889
0.251175
0.252765
0.254974
0.257135
0.258675
0.259884
0.260789
0.261383
0.262277
0.263463
0.264933
0.266974
0.269852
0.273825
0.278781
0.284211
0.289651
0.294924
0.29981
0.303966
0.307289
0.309958
0.312138
0.313949
0.315474
0.316774
0.317899
0.318876
0.319725
0.320459
0.321088
0.321623
0.322078
0.32246
0.322778
0.323039
0.323246
0.323409
0.323536
0.323634
0.32371
0.323771
0.323818
0.323858
0.323892
0.323926
0.323953
0.323986
0.324016
0.324036
0.324212
0.323946
0.0969643
0.115999
0.10762
0.0955092
0.0937879
0.0969272
0.104897
0.113854
0.121716
0.128342
0.134296
0.13981
0.145079
0.15017
0.155262
0.160342
0.165445
0.170548
0.175415
0.179757
0.183303
0.18601
0.188151
0.189704
0.190958
0.191908
0.192543
0.193503
0.194799
0.196444
0.198808
0.201229
0.202991
0.20441
0.205485
0.2062
0.20728
0.208731
0.210553
0.213137
0.215735
0.217605
0.219095
0.220215
0.220956
0.222074
0.223562
0.225426
0.227278
0.228757
0.230586
0.232409
0.233846
0.234917
0.235624
0.236683
0.238087
0.239823
0.242231
0.244583
0.24625
0.247558
0.248534
0.249176
0.25014
0.251418
0.252997
0.255192
0.25734
0.258869
0.260069
0.260967
0.261557
0.262444
0.263619
0.265078
0.267103
0.269958
0.273904
0.278824
0.284219
0.289627
0.294876
0.299749
0.303902
0.307229
0.309907
0.3121
0.313925
0.315465
0.316783
0.317925
0.318919
0.319783
0.320528
0.321167
0.321713
0.322174
0.322562
0.322883
0.323144
0.32335
0.323512
0.323637
0.323734
0.323809
0.323867
0.323913
0.323954
0.323987
0.32402
0.324048
0.324081
0.324111
0.324131
0.324309
0.324044
0.0969661
0.115993
0.107608
0.0954892
0.0937587
0.0968945
0.104858
0.113809
0.121669
0.128301
0.134266
0.139797
0.14509
0.150211
0.155345
0.160479
0.165643
0.170818
0.175758
0.180169
0.183771
0.186519
0.188691
0.190265
0.191535
0.192497
0.19314
0.194111
0.195422
0.197084
0.199471
0.201912
0.203688
0.205118
0.206199
0.206919
0.208005
0.209463
0.211293
0.213887
0.216489
0.218361
0.219851
0.220971
0.221712
0.222829
0.224316
0.226176
0.228022
0.229497
0.231317
0.233129
0.234558
0.235622
0.236323
0.237375
0.238767
0.240488
0.242873
0.245197
0.246844
0.248137
0.2491
0.249734
0.250685
0.251946
0.253502
0.255663
0.257775
0.259277
0.260456
0.261338
0.261918
0.26279
0.263945
0.265379
0.267367
0.27017
0.27404
0.278868
0.284163
0.289481
0.294659
0.299483
0.303612
0.30694
0.309633
0.31185
0.313707
0.315284
0.31664
0.317819
0.318848
0.319742
0.320515
0.321177
0.321739
0.322214
0.322611
0.322936
0.323198
0.323403
0.32356
0.323679
0.323771
0.32384
0.323894
0.323935
0.323971
0.324002
0.324035
0.324061
0.324093
0.324124
0.324144
0.324322
0.324056
0.0969687
0.115983
0.10759
0.0954557
0.0937082
0.096837
0.104787
0.113727
0.121582
0.128216
0.134196
0.139749
0.145077
0.150243
0.15544
0.160654
0.165918
0.171207
0.176269
0.180795
0.18449
0.187307
0.189531
0.191142
0.19244
0.193422
0.194079
0.19507
0.196406
0.1981
0.200527
0.203005
0.204804
0.206251
0.207345
0.208072
0.209169
0.210639
0.212483
0.215094
0.217708
0.219585
0.221077
0.222197
0.222938
0.224053
0.225536
0.22739
0.229226
0.230691
0.232497
0.234293
0.235707
0.236758
0.237451
0.238488
0.239861
0.241556
0.243903
0.246186
0.2478
0.249064
0.250005
0.250624
0.25155
0.252778
0.254294
0.256398
0.258451
0.259911
0.261055
0.261909
0.262469
0.263312
0.264429
0.265813
0.267735
0.270448
0.274199
0.278882
0.284024
0.289203
0.294274
0.299034
0.303136
0.306472
0.309196
0.311461
0.313373
0.315006
0.31642
0.317656
0.318739
0.319681
0.320495
0.321192
0.321783
0.322278
0.322686
0.323014
0.323272
0.32347
0.323616
0.323723
0.323803
0.323859
0.323902
0.323936
0.323967
0.323993
0.324021
0.324045
0.324078
0.324108
0.324129
0.324309
0.324046
0.0969731
0.115968
0.107562
0.0954022
0.0936263
0.0967432
0.104671
0.113589
0.121428
0.12806
0.134052
0.139628
0.144995
0.150219
0.155497
0.160824
0.166229
0.171687
0.176932
0.181633
0.185474
0.1884
0.190707
0.192375
0.193718
0.194733
0.195411
0.196434
0.197811
0.199553
0.202044
0.204578
0.206414
0.207888
0.209
0.20974
0.210853
0.212345
0.214213
0.216848
0.219478
0.221361
0.222855
0.223974
0.224714
0.225828
0.227308
0.229154
0.230977
0.232429
0.234213
0.235983
0.237374
0.238407
0.239088
0.240106
0.241452
0.243112
0.245401
0.247616
0.24918
0.250402
0.251312
0.251911
0.252807
0.253995
0.255458
0.257479
0.259443
0.260837
0.261929
0.262745
0.263281
0.264089
0.265158
0.266482
0.268316
0.270899
0.274463
0.278918
0.283821
0.288788
0.293699
0.298362
0.302432
0.305785
0.308557
0.310888
0.312879
0.314601
0.316102
0.317419
0.318576
0.319585
0.320457
0.321202
0.321829
0.322351
0.322773
0.323109
0.323365
0.323555
0.323691
0.323785
0.32385
0.323893
0.323925
0.323947
0.32397
0.323988
0.324013
0.324036
0.324066
0.324096
0.324117
0.324298
0.324036
0.0969801
0.115945
0.107518
0.0953209
0.0935006
0.0965978
0.104488
0.113368
0.121176
0.127791
0.133784
0.139375
0.144779
0.150066
0.155443
0.160911
0.166507
0.172202
0.177712
0.182677
0.186741
0.189838
0.192274
0.194033
0.195447
0.196513
0.197226
0.198298
0.19974
0.20156
0.204152
0.206778
0.208675
0.210193
0.211335
0.212094
0.213235
0.214759
0.216664
0.219343
0.222002
0.223899
0.225399
0.226521
0.227261
0.228372
0.229845
0.231677
0.233481
0.234914
0.23667
0.238407
0.239766
0.240773
0.241435
0.242423
0.243726
0.245329
0.247539
0.249668
0.251163
0.252325
0.253185
0.253749
0.254591
0.255704
0.257074
0.258972
0.260811
0.262111
0.263121
0.263873
0.264364
0.265102
0.26608
0.267291
0.268977
0.271361
0.274668
0.278812
0.283395
0.288095
0.292822
0.2974
0.301467
0.304872
0.307724
0.310151
0.31224
0.314062
0.315669
0.317091
0.318346
0.319442
0.320393
0.321205
0.321885
0.32244
0.32288
0.323218
0.323467
0.32364
0.323753
0.323824
0.323863
0.323885
0.323898
0.323908
0.323921
0.323936
0.323957
0.323978
0.32401
0.324043
0.324067
0.324252
0.323995
0.0969904
0.115913
0.107455
0.0952023
0.0933155
0.0963815
0.104213
0.113032
0.120781
0.127352
0.133324
0.138907
0.144334
0.149676
0.155155
0.160793
0.166627
0.172648
0.178537
0.183889
0.188294
0.191653
0.194292
0.196193
0.197716
0.198864
0.199628
0.200779
0.202322
0.204263
0.207013
0.209779
0.211765
0.21335
0.214537
0.215325
0.216506
0.218079
0.220037
0.222772
0.225464
0.227374
0.228878
0.229998
0.230736
0.231842
0.233305
0.235116
0.236888
0.23829
0.239999
0.241681
0.242992
0.24396
0.244596
0.245545
0.246794
0.248324
0.250415
0.252406
0.253798
0.254878
0.255678
0.256204
0.256991
0.258029
0.259299
0.261034
0.26269
0.263859
0.264769
0.265451
0.265897
0.266572
0.267463
0.268563
0.270072
0.272188
0.275094
0.278746
0.282836
0.287116
0.291569
0.296033
0.300104
0.303595
0.306576
0.309148
0.311393
0.313369
0.315114
0.31666
0.318036
0.319247
0.320297
0.321186
0.321921
0.322514
0.322977
0.323321
0.323561
0.323718
0.323808
0.323849
0.323859
0.323856
0.323848
0.323844
0.323846
0.323856
0.323874
0.323896
0.32393
0.323964
0.323993
0.324184
0.323931
0.097004
0.115867
0.107368
0.0950364
0.093054
0.0960744
0.103817
0.112539
0.120191
0.126674
0.13258
0.138113
0.143522
0.148883
0.154447
0.160259
0.166386
0.172823
0.17925
0.185186
0.190118
0.193897
0.196865
0.198998
0.200702
0.201982
0.202834
0.204113
0.205821
0.207959
0.210961
0.21395
0.216082
0.21777
0.219028
0.219861
0.221104
0.222749
0.224786
0.227607
0.230354
0.232286
0.233798
0.234917
0.235652
0.23675
0.238194
0.239975
0.241705
0.243067
0.244717
0.246335
0.247589
0.248508
0.249109
0.25
0.251167
0.252592
0.254537
0.256376
0.257647
0.258614
0.259319
0.259776
0.260451
0.261335
0.26241
0.263892
0.265296
0.26627
0.267003
0.267538
0.267883
0.268394
0.269067
0.269904
0.271078
0.272765
0.275122
0.278121
0.281567
0.285412
0.289681
0.294171
0.298368
0.302039
0.305198
0.30792
0.310279
0.312361
0.314237
0.315937
0.317477
0.31885
0.320045
0.321053
0.321878
0.322533
0.323027
0.323375
0.323599
0.323719
0.323763
0.32376
0.323731
0.323692
0.323662
0.323644
0.32364
0.323647
0.32367
0.323699
0.323742
0.323785
0.323827
0.324032
0.323792
0.0970231
0.115806
0.107249
0.0948164
0.0926988
0.0956541
0.103271
0.111847
0.119343
0.125676
0.131439
0.136843
0.142155
0.147459
0.153036
0.158982
0.165417
0.172389
0.179534
0.186339
0.19212
0.196565
0.200069
0.202587
0.204593
0.206094
0.207093
0.208587
0.21057
0.213037
0.216452
0.219795
0.222147
0.223987
0.225344
0.226237
0.227562
0.2293
0.231436
0.23435
0.237136
0.239067
0.240557
0.241651
0.242366
0.243428
0.244818
0.246516
0.248147
0.249422
0.250948
0.252425
0.253557
0.254383
0.25492
0.255719
0.25676
0.258025
0.259714
0.261267
0.262336
0.263159
0.26377
0.264171
0.264779
0.265575
0.266538
0.267802
0.26893
0.269706
0.270297
0.270737
0.271025
0.27146
0.272019
0.272676
0.273515
0.274607
0.276011
0.277833
0.280145
0.283136
0.287003
0.291439
0.295838
0.29982
0.303286
0.306242
0.308754
0.310964
0.313025
0.314959
0.316731
0.318302
0.319653
0.320781
0.321693
0.322406
0.322936
0.323292
0.323501
0.323586
0.323587
0.323535
0.323458
0.323388
0.323336
0.32331
0.323308
0.323323
0.323359
0.323401
0.323467
0.323526
0.323586
0.323809
0.323598
0.0970456
0.115731
0.107109
0.0945395
0.0922541
0.0951261
0.102572
0.110958
0.118226
0.124324
0.129842
0.134998
0.140065
0.145165
0.150595
0.156532
0.163201
0.170724
0.17878
0.186774
0.193745
0.199328
0.203715
0.206865
0.209372
0.21124
0.21248
0.214328
0.216764
0.219775
0.223886
0.227824
0.230561
0.232667
0.234187
0.235177
0.236632
0.238499
0.240747
0.243682
0.246397
0.24826
0.249693
0.250746
0.251436
0.252462
0.25381
0.255456
0.257032
0.258257
0.259701
0.261084
0.262129
0.262881
0.263364
0.264072
0.264994
0.266106
0.267623
0.269024
0.269971
0.270668
0.271151
0.271453
0.271879
0.272402
0.272991
0.273757
0.274384
0.274735
0.274907
0.274993
0.275027
0.275064
0.275107
0.275167
0.275271
0.275451
0.275532
0.275711
0.276582
0.279057
0.283164
0.288125
0.293146
0.297587
0.301125
0.30403
0.306541
0.308826
0.311076
0.31328
0.315338
0.31717
0.318744
0.320055
0.321113
0.321933
0.322527
0.322908
0.323101
0.323145
0.323098
0.322979
0.322861
0.322765
0.322709
0.322698
0.322721
0.322771
0.322856
0.322936
0.323046
0.323139
0.32324
0.323507
0.323352
0.0970709
0.115652
0.106945
0.0942376
0.0917514
0.0945247
0.101773
0.109927
0.116891
0.1227
0.127833
0.132624
0.137232
0.141927
0.146925
0.152548
0.159156
0.166935
0.175773
0.185127
0.19377
0.200722
0.206439
0.210638
0.214022
0.216567
0.218256
0.22079
0.224102
0.228161
0.233482
0.238222
0.241297
0.243516
0.245053
0.246034
0.247423
0.249154
0.25117
0.253731
0.255989
0.257467
0.258564
0.259362
0.259884
0.26066
0.261701
0.263001
0.264243
0.265211
0.26633
0.267354
0.268076
0.268573
0.26889
0.269359
0.269935
0.270583
0.271401
0.27217
0.272774
0.273335
0.273831
0.274179
0.274779
0.275632
0.276785
0.27839
0.279819
0.280795
0.281488
0.28193
0.282219
0.282568
0.282783
0.282773
0.28234
0.280935
0.278644
0.275607
0.273658
0.274365
0.277814
0.283524
0.289432
0.294427
0.29803
0.300875
0.303425
0.305842
0.308306
0.310816
0.31321
0.315337
0.317149
0.318665
0.31991
0.320889
0.321612
0.322082
0.322324
0.322373
0.322303
0.32215
0.322019
0.321934
0.321916
0.321951
0.322051
0.32217
0.322333
0.322472
0.322657
0.322804
0.322967
0.323298
0.323228
0.0970982
0.115568
0.10677
0.0939315
0.0912092
0.0938899
0.100908
0.108819
0.115418
0.120884
0.125497
0.129815
0.133745
0.137716
0.141936
0.146711
0.152601
0.15995
0.169089
0.179608
0.190285
0.199488
0.20757
0.213396
0.218093
0.221515
0.223717
0.226899
0.230696
0.234975
0.239169
0.241685
0.242829
0.243359
0.24365
0.243794
0.244026
0.244289
0.244649
0.245396
0.246371
0.247136
0.247754
0.248227
0.248546
0.248995
0.249568
0.25017
0.250621
0.250627
0.250351
0.249656
0.248674
0.247899
0.247333
0.246497
0.245677
0.245261
0.245577
0.247095
0.248987
0.250685
0.25194
0.252781
0.253921
0.25528
0.256802
0.259073
0.261692
0.263647
0.265149
0.266237
0.266903
0.267884
0.269249
0.270929
0.272631
0.273118
0.271641
0.267325
0.264575
0.265904
0.271309
0.279023
0.286079
0.291197
0.294371
0.296504
0.298821
0.301267
0.303853
0.3067
0.309537
0.312119
0.314337
0.316232
0.317831
0.319119
0.320084
0.320735
0.321116
0.321241
0.321212
0.321089
0.32099
0.320967
0.32103
0.321181
0.321407
0.321635
0.32191
0.322144
0.322427
0.322645
0.322901
0.323289
0.323321
0.0971226
0.115489
0.1066
0.093636
0.0906553
0.0932655
0.100013
0.107724
0.1139
0.118965
0.123034
0.126698
0.129819
0.132731
0.135746
0.138972
0.143133
0.148783
0.156875
0.167719
0.180866
0.192056
0.2021
0.209712
0.214713
0.217924
0.219834
0.222487
0.225263
0.229066
0.229021
0.227303
0.224505
0.221397
0.218966
0.217286
0.214863
0.21169
0.208534
0.204872
0.20287
0.202809
0.203399
0.204413
0.205492
0.207456
0.210762
0.215453
0.219753
0.222758
0.225123
0.22609
0.225839
0.225347
0.22477
0.223637
0.222077
0.219899
0.217731
0.217732
0.219284
0.223191
0.227567
0.230696
0.236105
0.244337
0.257037
0.273971
0.286777
0.293551
0.296908
0.298399
0.299049
0.299248
0.298727
0.296632
0.293921
0.287439
0.273882
0.257702
0.248381
0.249526
0.258317
0.270335
0.279891
0.285368
0.287644
0.288581
0.290099
0.292753
0.29592
0.299538
0.303447
0.307046
0.310083
0.312608
0.314723
0.316459
0.317813
0.31882
0.319522
0.319885
0.319989
0.31995
0.319922
0.31997
0.320161
0.320443
0.320814
0.321176
0.321581
0.321921
0.322312
0.322608
0.32296
0.323386
0.323537
0.0971443
0.115423
0.106464
0.0933572
0.090174
0.0926987
0.0992159
0.106739
0.112484
0.117218
0.120727
0.12369
0.126001
0.127715
0.129144
0.130356
0.131721
0.134188
0.139365
0.150362
0.163958
0.180258
0.197987
0.216545
0.233534
0.250626
0.265168
0.29051
0.331655
0.373431
0.391771
0.386968
0.376831
0.363109
0.352453
0.345262
0.335058
0.321903
0.307613
0.28496
0.266325
0.255383
0.251222
0.251576
0.25256
0.255892
0.26395
0.276284
0.287292
0.294575
0.299519
0.300555
0.299624
0.298106
0.29684
0.294517
0.291272
0.285533
0.279739
0.280847
0.28592
0.293078
0.295368
0.295426
0.292904
0.279178
0.253952
0.24393
0.246572
0.25416
0.263279
0.269103
0.272696
0.277454
0.282641
0.287868
0.291027
0.289356
0.275248
0.249763
0.233248
0.233236
0.243895
0.258507
0.269029
0.274495
0.275936
0.275773
0.276178
0.278444
0.282225
0.286672
0.29174
0.296657
0.300788
0.304254
0.30729
0.309972
0.312314
0.314319
0.315953
0.317071
0.317712
0.318015
0.318242
0.318507
0.318908
0.31938
0.319936
0.320455
0.321004
0.321457
0.321956
0.322322
0.322764
0.323221
0.323474
0.097162
0.11537
0.10639
0.0931023
0.0898265
0.092241
0.0986321
0.105907
0.111425
0.11576
0.118925
0.121258
0.122767
0.123635
0.123342
0.122614
0.121001
0.119124
0.120822
0.129816
0.151671
0.196414
0.290536
0.377653
0.444541
0.491022
0.518874
0.561801
0.598522
0.622133
0.608499
0.574144
0.537253
0.505926
0.483383
0.468679
0.448793
0.423622
0.394739
0.346618
0.300559
0.276036
0.265067
0.265582
0.267587
0.274998
0.293823
0.331411
0.367599
0.39219
0.409253
0.405779
0.395597
0.38175
0.371585
0.354211
0.331923
0.297884
0.230287
0.141262
0.105337
0.104087
0.106291
0.107108
0.103229
0.0925387
0.084886
0.0853452
0.0921345
0.101474
0.109958
0.116859
0.1216
0.129209
0.140028
0.155461
0.17671
0.201771
0.214045
0.208843
0.20702
0.218098
0.23815
0.254617
0.26338
0.265247
0.263742
0.259979
0.257138
0.256742
0.258841
0.263254
0.268468
0.274454
0.280775
0.287036
0.293017
0.298558
0.303559
0.307902
0.311398
0.313819
0.315291
0.316083
0.316597
0.317058
0.317628
0.318252
0.318952
0.319594
0.320247
0.320774
0.321343
0.32175
0.322248
0.322713
0.323024
0.0971718
0.115346
0.106341
0.0929294
0.0895709
0.0919211
0.0982321
0.105307
0.110701
0.114719
0.117609
0.119585
0.120426
0.120455
0.119386
0.116861
0.11282
0.106547
0.104511
0.115367
0.170778
0.323964
0.453582
0.51189
0.545444
0.566436
0.581561
0.606826
0.608485
0.593329
0.55485
0.512669
0.476645
0.44183
0.41467
0.395479
0.367625
0.331942
0.281187
0.214007
0.160745
0.164425
0.177745
0.196046
0.216836
0.241476
0.297932
0.345969
0.412288
0.447708
0.437947
0.399883
0.345579
0.307136
0.282434
0.242882
0.188795
0.136967
0.102802
0.0962979
0.123831
0.153267
0.157026
0.150314
0.143141
0.141316
0.144927
0.15124
0.155942
0.157153
0.156489
0.154738
0.153123
0.150059
0.14561
0.139208
0.131831
0.136448
0.156051
0.17389
0.191888
0.21395
0.234901
0.250306
0.25696
0.25603
0.252266
0.247108
0.243028
0.240578
0.23951
0.239782
0.242238
0.247859
0.25642
0.267399
0.278612
0.288733
0.297421
0.304376
0.309426
0.312619
0.314342
0.315109
0.315533
0.315943
0.316524
0.317204
0.317979
0.318687
0.3194
0.31996
0.320562
0.320976
0.321501
0.32196
0.3223
0.0971738
0.115344
0.106296
0.0928223
0.0893861
0.0917032
0.0979722
0.104891
0.110199
0.114038
0.116647
0.118473
0.118767
0.11834
0.116599
0.112856
0.106957
0.0979464
0.0917395
0.111912
0.235073
0.389532
0.468742
0.434475
0.386843
0.393016
0.417759
0.423027
0.412063
0.383292
0.368566
0.339459
0.299011
0.266599
0.243112
0.228188
0.204633
0.158507
0.119618
0.0959626
0.0991792
0.123228
0.155114
0.177223
0.199161
0.233134
0.281106
0.368553
0.408397
0.40335
0.349522
0.23021
0.147052
0.113755
0.103372
0.105347
0.120731
0.136493
0.163391
0.28309
0.336752
0.34588
0.315504
0.283492
0.238524
0.211838
0.208258
0.214662
0.225776
0.234131
0.240374
0.244822
0.247662
0.251103
0.252609
0.25019
0.2363
0.187223
0.170243
0.173148
0.18744
0.20927
0.226744
0.24009
0.244881
0.243517
0.243412
0.243349
0.242223
0.239917
0.236905
0.234476
0.234673
0.239177
0.249032
0.262119
0.275706
0.287711
0.297645
0.305172
0.310186
0.31295
0.314121
0.314419
0.314568
0.314861
0.315441
0.31617
0.31701
0.317765
0.318514
0.319089
0.31971
0.320125
0.320673
0.321119
0.321488
0.0971768
0.115343
0.106259
0.0927404
0.0892613
0.0915552
0.0977959
0.104608
0.109825
0.11359
0.115956
0.117677
0.117618
0.116886
0.114629
0.110031
0.102899
0.0918543
0.0831122
0.11941
0.270999
0.390794
0.357224
0.312276
0.311036
0.336481
0.372562
0.3651
0.33412
0.309017
0.261966
0.182389
0.14218
0.118494
0.101058
0.0889431
0.0777993
0.0623742
0.0546411
0.0988561
0.116476
0.0997798
0.137396
0.202662
0.251456
0.269492
0.319559
0.336251
0.307179
0.225763
0.126961
0.087143
0.0818237
0.0837462
0.0896858
0.104857
0.133345
0.183351
0.318968
0.400416
0.396302
0.382025
0.335518
0.298325
0.245212
0.216676
0.215001
0.225262
0.236461
0.246327
0.255391
0.263183
0.268897
0.276737
0.28526
0.2982
0.298005
0.26271
0.198115
0.17925
0.18586
0.202235
0.217194
0.229985
0.234873
0.237894
0.244451
0.249545
0.251144
0.249768
0.245842
0.241897
0.241155
0.245346
0.255563
0.268934
0.282021
0.292854
0.301489
0.307771
0.311596
0.313307
0.313685
0.313548
0.313478
0.313703
0.31435
0.315159
0.316063
0.316859
0.317635
0.318223
0.318859
0.319277
0.31985
0.320283
0.320685
0.0971824
0.115339
0.106225
0.0926658
0.0891673
0.0914421
0.097654
0.104394
0.109518
0.113236
0.115428
0.116992
0.116782
0.115741
0.113056
0.107816
0.0997567
0.0871103
0.0769889
0.126266
0.280302
0.358439
0.313964
0.269317
0.249573
0.31438
0.33638
0.269914
0.20494
0.133177
0.0688121
0.0511182
0.0544977
0.0486048
0.0464571
0.048552
0.0541305
0.0433416
0.0713946
0.108253
0.0993243
0.215233
0.281625
0.347207
0.340544
0.286836
0.261242
0.165361
0.0988864
0.101318
0.0895684
0.0830336
0.0809963
0.0812065
0.0857964
0.115061
0.175849
0.310539
0.415887
0.419723
0.386991
0.369585
0.299836
0.26179
0.189745
0.163712
0.149659
0.149281
0.15898
0.173593
0.191631
0.207614
0.226016
0.250326
0.273154
0.300272
0.325554
0.307817
0.234069
0.189666
0.184353
0.194386
0.209437
0.223704
0.231301
0.23992
0.251089
0.258618
0.261874
0.261258
0.257942
0.254366
0.253731
0.258019
0.267725
0.279944
0.291265
0.29966
0.305933
0.310205
0.312465
0.313062
0.312851
0.31237
0.312233
0.312502
0.313256
0.314157
0.315128
0.31596
0.316759
0.31736
0.318012
0.318436
0.319036
0.31946
0.3199
0.09719
0.115317
0.106184
0.0926061
0.0890948
0.0913525
0.0975371
0.104234
0.109287
0.112966
0.115047
0.11647
0.116161
0.114906
0.111889
0.106212
0.0974959
0.0836957
0.0730811
0.131459
0.281649
0.337217
0.260756
0.222214
0.211303
0.297807
0.301964
0.174898
0.096822
0.0395314
0.023805
0.0261442
0.022188
0.0188442
0.0248246
0.0422349
0.0509607
0.0459747
0.0935496
0.126334
0.175538
0.316681
0.308608
0.352175
0.305086
0.122139
0.0645623
0.0864104
0.0878453
0.0838546
0.0731249
0.0654637
0.0631161
0.0660077
0.0636999
0.1191
0.234354
0.388336
0.467411
0.390987
0.357979
0.33909
0.239134
0.217057
0.105979
0.0726331
0.0638902
0.0623591
0.067362
0.0765077
0.0937285
0.111598
0.140801
0.203288
0.24596
0.293187
0.336529
0.329985
0.259466
0.198013
0.182331
0.188877
0.204784
0.220782
0.231036
0.242887
0.255317
0.264056
0.268375
0.268695
0.266497
0.263869
0.263635
0.267947
0.276991
0.288126
0.29807
0.30473
0.309051
0.311461
0.312338
0.312186
0.311524
0.310983
0.310925
0.311343
0.312244
0.313237
0.314268
0.315131
0.31595
0.316562
0.317233
0.317666
0.318292
0.318708
0.319188
0.0971912
0.115312
0.106175
0.092583
0.0890487
0.091292
0.097455
0.104129
0.109138
0.112787
0.114798
0.116125
0.11575
0.114358
0.111125
0.10518
0.0960435
0.0815373
0.0708842
0.134148
0.276703
0.32154
0.243577
0.206599
0.191644
0.239855
0.0467997
0.0508644
0.0566392
0.118309
0.147001
0.256167
0.333412
0.303319
0.333038
0.0570472
0.104272
0.259851
0.416872
0.478634
0.37707
0.340745
0.315449
0.178527
0.104238
0.141713
0.213691
0.280257
0.34425
0.343516
0.273533
0.203407
0.180621
0.185217
0.202116
0.218895
0.230609
0.243567
0.256551
0.266187
0.27172
0.273159
0.271852
0.269673
0.269506
0.273516
0.28189
0.292339
0.301695
0.307418
0.310485
0.311773
0.311858
0.311222
0.310364
0.309867
0.309909
0.310485
0.311497
0.312561
0.313635
0.314519
0.315353
0.315974
0.316659
0.3171
0.317746
0.318164
0.318663
0.0971896
0.115316
0.106179
0.0925629
0.0889795
0.0912004
0.0973303
0.103975
0.10892
0.11252
0.114433
0.115615
0.115139
0.11355
0.110002
0.10367
0.0939328
0.0784315
0.0678261
0.136057
0.26943
0.298793
0.204868
0.173931
0.164629
0.191955
0.0452674
0.0505883
0.0705825
0.12921
0.146516
0.296969
0.34022
0.300041
0.30371
0.0670261
0.111415
0.303867
0.445647
0.480939
0.355514
0.315834
0.284418
0.135908
0.0441558
0.0602594
0.110897
0.231677
0.335002
0.35925
0.290947
0.207314
0.176703
0.180066
0.198601
0.214835
0.228314
0.243053
0.257138
0.268392
0.275812
0.279269
0.279464
0.277964
0.277478
0.280495
0.287621
0.296531
0.304719
0.30953
0.311355
0.311365
0.310492
0.309182
0.308243
0.307913
0.308186
0.309071
0.310268
0.311451
0.312592
0.313509
0.314368
0.315007
0.315716
0.316176
0.316849
0.317282
0.3178
0.0971918
0.115296
0.106157
0.0925233
0.0888811
0.091075
0.0971623
0.10377
0.108636
0.112162
0.113959
0.11495
0.114343
0.112502
0.108551
0.101746
0.0912861
0.0746895
0.0640359
0.136705
0.257928
0.276718
0.180351
0.148848
0.137419
0.138637
0.0507189
0.0564152
0.059521
0.113001
0.154381
0.308445
0.33135
0.284594
0.287306
0.100385
0.162171
0.373078
0.476373
0.469287
0.326086
0.284527
0.237714
0.111967
0.0416703
0.0450055
0.0576979
0.104265
0.271804
0.34537
0.289161
0.203511
0.168783
0.175007
0.192758
0.206321
0.221872
0.239944
0.25709
0.270198
0.279724
0.285908
0.288337
0.28791
0.286758
0.287781
0.291902
0.299023
0.305602
0.308745
0.309106
0.30809
0.306346
0.304967
0.304386
0.304528
0.305447
0.306831
0.308331
0.309689
0.310925
0.311892
0.312792
0.313467
0.314222
0.314717
0.315441
0.315896
0.316457
0.0971964
0.115274
0.106123
0.0924705
0.0887654
0.0909305
0.0969649
0.103519
0.108299
0.111719
0.113391
0.11415
0.113382
0.111246
0.106834
0.0995209
0.0883279
0.0707516
0.0592995
0.131453
0.240997
0.252656
0.154586
0.12248
0.107021
0.103447
0.0514868
0.0628857
0.0618904
0.0569953
0.172008
0.283569
0.299334
0.264862
0.28217
0.109457
0.212441
0.433512
0.510269
0.41968
0.28625
0.246256
0.212168
0.120292
0.0527295
0.0590981
0.0607631
0.067174
0.104281
0.242533
0.248977
0.17189
0.153804
0.164956
0.176079
0.189645
0.211115
0.238077
0.258606
0.273887
0.284972
0.292946
0.296863
0.296592
0.294085
0.292772
0.29389
0.298105
0.301385
0.302373
0.301843
0.300233
0.298791
0.298186
0.298438
0.299634
0.30156
0.303567
0.305481
0.307074
0.308442
0.309487
0.310463
0.311205
0.31204
0.312595
0.3134
0.313886
0.314523
0.0972032
0.115247
0.106076
0.0923903
0.0886168
0.0907471
0.0967138
0.103183
0.107861
0.111119
0.112645
0.113089
0.11211
0.109595
0.104621
0.0967107
0.0848117
0.0663733
0.0530335
0.119291
0.225104
0.237498
0.141365
0.109907
0.0911637
0.0817795
0.0348818
0.0530876
0.0534367
0.101648
0.239902
0.224828
0.245421
0.222144
0.253653
0.105766
0.216728
0.436877
0.502676
0.371746
0.257628
0.224284
0.215397
0.151253
0.0496049
0.0544054
0.0450989
0.105266
0.129415
0.133032
0.144495
0.126446
0.116739
0.124411
0.133819
0.158202
0.199332
0.238668
0.26701
0.28348
0.294058
0.300553
0.302425
0.301401
0.297611
0.294066
0.292629
0.291247
0.289189
0.287206
0.285875
0.285412
0.285811
0.287264
0.289564
0.292356
0.295313
0.298047
0.300479
0.302419
0.304042
0.305283
0.306438
0.307335
0.308327
0.309
0.309957
0.310492
0.311294
0.0972108
0.115229
0.10604
0.0922971
0.0884828
0.0905829
0.0964945
0.102867
0.107461
0.110553
0.111956
0.112102
0.110934
0.108064
0.102649
0.0942612
0.0820353
0.0636039
0.0472064
0.0980583
0.211878
0.236159
0.14887
0.114619
0.0963184
0.0881984
0.0248038
0.0344659
0.0858223
0.266989
0.321734
0.173906
0.180984
0.18023
0.211101
0.0898945
0.175424
0.4113
0.485571
0.372716
0.268569
0.241028
0.239095
0.194035
0.0522922
0.0521565
0.0512881
0.124777
0.179519
0.197014
0.149808
0.119749
0.101945
0.0869326
0.0997493
0.140983
0.199472
0.251422
0.284582
0.300201
0.3046
0.304361
0.301751
0.295527
0.289034
0.284131
0.28041
0.275328
0.270565
0.268127
0.268058
0.270018
0.273383
0.277168
0.280988
0.284662
0.288229
0.291423
0.294247
0.296542
0.298502
0.300039
0.30146
0.302576
0.303775
0.304601
0.305759
0.306346
0.30738
0.0972181
0.115218
0.106015
0.0922228
0.0883979
0.0904789
0.0963541
0.102657
0.107188
0.110177
0.111489
0.111451
0.11015
0.107046
0.101353
0.0927249
0.0803904
0.0625352
0.0444223
0.0768851
0.198609
0.238691
0.166139
0.127654
0.112445
0.109379
0.0274706
0.0706501
0.200089
0.338176
0.342016
0.159221
0.120462
0.147669
0.173357
0.098896
0.163748
0.393633
0.474476
0.378467
0.289854
0.274942
0.273872
0.234033
0.059077
0.0577511
0.0410552
0.0913417
0.139476
0.169363
0.167447
0.112362
0.0879076
0.0687432
0.0888844
0.139933
0.204247
0.261884
0.298416
0.310508
0.308874
0.298276
0.28489
0.273562
0.265977
0.262268
0.260086
0.257209
0.255097
0.255158
0.25737
0.261339
0.265966
0.270536
0.274826
0.278794
0.282595
0.28603
0.289131
0.291709
0.293951
0.295735
0.297378
0.298674
0.30004
0.300992
0.302319
0.302942
0.304189
0.0972247
0.115211
0.105989
0.0921624
0.0883319
0.0904041
0.0962466
0.102504
0.106971
0.109899
0.111108
0.110991
0.109548
0.106275
0.100349
0.0916343
0.0791912
0.0620383
0.0436145
0.0588901
0.179274
0.241544
0.193357
0.154459
0.143439
0.142049
0.0847226
0.175952
0.258378
0.353254
0.317269
0.159177
0.0831732
0.132106
0.156036
0.115332
0.165235
0.377729
0.464473
0.391342
0.311978
0.299339
0.31851
0.284375
0.0657277
0.0667299
0.0476836
0.100923
0.130859
0.154235
0.159157
0.106703
0.0785647
0.0620825
0.0869242
0.139305
0.204843
0.264001
0.301899
0.312398
0.304751
0.283168
0.262883
0.248589
0.241675
0.240196
0.240907
0.242214
0.243971
0.246926
0.251032
0.255779
0.260655
0.265278
0.269671
0.273752
0.277702
0.281334
0.284677
0.2875
0.289981
0.291973
0.293805
0.295256
0.296771
0.297835
0.299311
0.299977
0.301403
0.0972311
0.115192
0.10595
0.0921171
0.0882773
0.0903454
0.09616
0.102395
0.106811
0.109702
0.110828
0.11066
0.109118
0.105719
0.0996334
0.0908594
0.078375
0.0617878
0.0435978
0.048012
0.159019
0.241359
0.22543
0.177084
0.16296
0.203446
0.22674
0.249821
0.273997
0.339353
0.282629
0.154829
0.0613391
0.126254
0.157392
0.138445
0.168116
0.365624
0.456931
0.406298
0.331612
0.320761
0.345417
0.312482
0.0719147
0.0697285
0.06074
0.108377
0.133227
0.150485
0.153453
0.105924
0.0771112
0.0615226
0.0870531
0.137992
0.202018
0.260285
0.296703
0.303821
0.292288
0.266604
0.244329
0.230049
0.224732
0.225179
0.228897
0.233572
0.238044
0.242629
0.247392
0.252161
0.256808
0.261242
0.265579
0.269726
0.273799
0.277593
0.281123
0.284132
0.286789
0.288937
0.290912
0.292483
0.294115
0.295269
0.296868
0.297573
0.299151
0.0972317
0.115189
0.105941
0.0921042
0.0882429
0.0903051
0.0960994
0.102323
0.106708
0.109576
0.110646
0.110445
0.108841
0.105357
0.0991885
0.0903558
0.0778809
0.0616096
0.0440731
0.0411852
0.14367
0.239562
0.242245
0.202449
0.187974
0.228113
0.274801
0.1503
0.11861
0.1127
0.110249
0.114311
0.13093
0.174287
0.211325
0.266879
0.258303
0.272573
0.319499
0.265563
0.154735
0.056035
0.0999845
0.140273
0.121965
0.115669
0.121247
0.107714
0.053466
0.0121395
0.00749365
0.00924042
0.0170604
0.0606152
0.143346
0.169348
0.356517
0.44832
0.417412
0.343943
0.333095
0.376433
0.35332
0.216376
0.0569854
0.0517836
0.0721108
0.0798198
0.0510134
0.0408146
0.0369197
0.0423345
0.0757796
0.0688533
0.0688714
0.110693
0.136352
0.151919
0.151106
0.106596
0.0780147
0.0626355
0.0867613
0.134813
0.195618
0.250806
0.284479
0.290099
0.277794
0.252719
0.231956
0.219678
0.215965
0.217606
0.22305
0.229306
0.235041
0.240311
0.245235