/*--------------------------------*- C++ -*----------------------------------*\
| =========                 |                                                 |
| \\      /  F ield         | OpenFOAM: The Open Source CFD Toolbox           |
|  \\    /   O peration     | Version:  v2006                                 |
|   \\  /    A nd           | Website:  www.openfoam.com                      |
|    \\/     M anipulation  |                                                 |
\*---------------------------------------------------------------------------*/
FoamFile
{
    version     2.0;
    format      ascii;
    class       volScalarField;
    location    "0.56";
    object      p;
}
// * * * * * * * * * * * * * * * * * * * * * * * * * * * * * * * * * * * * * //

dimensions      [0 2 -2 0 0 0 0];


internalField   nonuniform List<scalar> 
374400
(
0.123516
0.0520373
-0.0324976
-0.0656325
-0.0681654
-0.065623
-0.0677901
-0.0756117
-0.0874232
-0.101602
-0.116922
-0.132695
-0.148527
-0.16431
-0.179694
-0.194355
-0.208166
-0.221395
-0.233706
-0.244524
-0.253059
-0.259301
-0.26398
-0.267206
-0.269724
-0.271569
-0.272778
-0.274566
-0.276879
-0.279665
-0.283339
-0.28672
-0.288996
-0.290732
-0.291967
-0.292762
-0.293926
-0.295413
-0.297159
-0.299357
-0.301219
-0.302354
-0.303154
-0.303675
-0.303994
-0.304438
-0.304934
-0.305407
-0.305642
-0.305692
-0.305613
-0.305321
-0.304955
-0.304573
-0.304293
-0.303847
-0.30315
-0.302129
-0.300368
-0.298131
-0.296253
-0.294615
-0.293281
-0.292366
-0.290955
-0.288936
-0.286244
-0.282102
-0.277457
-0.273865
-0.270855
-0.268488
-0.266886
-0.264446
-0.261051
-0.256648
-0.250128
-0.240157
-0.224887
-0.203267
-0.175863
-0.144148
-0.108852
-0.0718812
-0.037333
-0.00800038
0.015898
0.0348271
0.0494916
0.0606112
0.0688209
0.0746225
0.0784104
0.0805218
0.081251
0.0808505
0.0795366
0.0775002
0.0749009
0.0718687
0.0685075
0.0648991
0.0611075
0.057183
0.0531648
0.0490816
0.044953
0.0407917
0.0366045
0.0323921
0.0281566
0.0238975
0.01962
0.0153142
0.010994
0.00673643
0.000585203
0.126205
0.0547538
-0.0297516
-0.0628626
-0.0653578
-0.0627708
-0.0648911
-0.0726742
-0.0844618
-0.0986378
-0.113991
-0.129827
-0.145777
-0.161742
-0.17738
-0.19238
-0.206616
-0.220357
-0.233233
-0.244608
-0.253621
-0.260237
-0.265211
-0.268648
-0.271335
-0.273307
-0.274602
-0.276518
-0.279001
-0.282003
-0.285974
-0.289645
-0.292125
-0.294022
-0.295375
-0.296248
-0.297529
-0.299168
-0.301098
-0.303545
-0.305643
-0.306935
-0.307855
-0.308463
-0.308836
-0.309361
-0.309961
-0.310555
-0.310901
-0.311033
-0.311048
-0.310839
-0.310531
-0.310188
-0.309931
-0.309516
-0.308858
-0.307876
-0.306153
-0.303932
-0.302049
-0.300399
-0.299051
-0.298123
-0.29669
-0.294639
-0.291899
-0.287676
-0.282934
-0.279258
-0.276174
-0.273746
-0.272102
-0.269595
-0.26611
-0.261587
-0.254891
-0.244652
-0.228976
-0.206789
-0.178691
-0.146198
-0.110074
-0.0722879
-0.0370313
-0.00714879
0.017135
0.0362979
0.0510711
0.0622056
0.070364
0.0760682
0.0797308
0.0817054
0.082294
0.0817547
0.0803103
0.0781537
0.0754469
0.072319
0.0688732
0.0651923
0.06134
0.0573657
0.0533074
0.0491932
0.0450409
0.0408608
0.0366594
0.0324373
0.0281933
0.0239269
0.0196449
0.0153344
0.0110072
0.00674453
0.000585677
0.131626
0.060191
-0.0242773
-0.0573198
-0.0597278
-0.0570423
-0.0590607
-0.0667507
-0.0784688
-0.0926145
-0.108007
-0.123956
-0.140118
-0.156434
-0.172566
-0.188243
-0.203334
-0.218117
-0.232155
-0.244683
-0.254692
-0.262082
-0.267671
-0.271552
-0.274596
-0.276836
-0.278309
-0.280491
-0.283335
-0.286789
-0.291381
-0.295659
-0.298562
-0.300792
-0.30239
-0.303425
-0.304947
-0.306901
-0.309214
-0.312175
-0.314749
-0.316359
-0.317522
-0.318304
-0.318791
-0.319482
-0.32029
-0.321128
-0.32169
-0.321979
-0.322176
-0.322121
-0.321923
-0.321654
-0.321444
-0.321096
-0.320508
-0.319595
-0.317925
-0.315696
-0.31378
-0.312091
-0.310706
-0.309753
-0.308278
-0.306154
-0.303306
-0.298897
-0.293916
-0.29005
-0.286808
-0.284259
-0.282533
-0.279902
-0.276238
-0.27148
-0.264429
-0.253642
-0.237121
-0.213749
-0.184178
-0.150054
-0.11223
-0.0728064
-0.0361689
-0.0052456
0.0197556
0.0393535
0.0543311
0.0654895
0.0735422
0.0790511
0.0824652
0.0841642
0.0844662
0.0836444
0.0819289
0.0795194
0.0765836
0.073255
0.0696357
0.0658044
0.061824
0.0577461
0.0536064
0.049428
0.045225
0.0410073
0.0367779
0.0325349
0.0282751
0.0239953
0.0196997
0.015377
0.0110405
0.00676756
0.000592463
0.139741
0.0683364
-0.0160574
-0.0489751
-0.0512265
-0.0483568
-0.0501784
-0.0576798
-0.0692362
-0.0832761
-0.0986566
-0.114706
-0.13112
-0.147913
-0.164718
-0.181406
-0.197787
-0.21418
-0.230049
-0.244423
-0.256044
-0.264696
-0.271292
-0.2759
-0.279527
-0.282205
-0.28397
-0.286592
-0.290035
-0.294232
-0.299852
-0.305143
-0.308754
-0.31154
-0.313549
-0.314855
-0.316777
-0.319259
-0.322215
-0.326038
-0.329421
-0.331571
-0.333144
-0.334219
-0.334894
-0.33586
-0.33702
-0.338272
-0.339208
-0.33977
-0.34028
-0.340502
-0.340499
-0.340355
-0.340219
-0.339973
-0.339505
-0.33871
-0.337148
-0.334951
-0.333005
-0.331259
-0.329811
-0.328806
-0.327244
-0.324993
-0.321962
-0.317251
-0.311913
-0.307745
-0.30423
-0.301457
-0.299573
-0.296697
-0.2927
-0.287508
-0.279819
-0.268066
-0.250096
-0.224732
-0.19273
-0.155938
-0.115365
-0.0733352
-0.0345455
-0.00204294
0.0240084
0.044205
0.0594195
0.0705465
0.0783714
0.0835359
0.0865355
0.0877846
0.0876345
0.0863731
0.0842521
0.0814729
0.0782035
0.0745797
0.0707056
0.0666577
0.0624977
0.0582736
0.0540145
0.0497478
0.0454779
0.04121
0.0369435
0.0326724
0.0283902
0.0240917
0.0197805
0.0154432
0.0110886
0.00679673
0.000602419
0.150527
0.0791767
-0.00509476
-0.0378124
-0.0398042
-0.0366225
-0.0380995
-0.0452528
-0.0564861
-0.0702622
-0.0854908
-0.101547
-0.118157
-0.135444
-0.153215
-0.171077
-0.189145
-0.207745
-0.22621
-0.243253
-0.257236
-0.267754
-0.275847
-0.281535
-0.286032
-0.289367
-0.291571
-0.294862
-0.299202
-0.304511
-0.311671
-0.318469
-0.323133
-0.326748
-0.32937
-0.33108
-0.333603
-0.336869
-0.340779
-0.345879
-0.350435
-0.353361
-0.355526
-0.357024
-0.357975
-0.359342
-0.361003
-0.362835
-0.364281
-0.365216
-0.366149
-0.366723
-0.366968
-0.366985
-0.366952
-0.366848
-0.36652
-0.365849
-0.364349
-0.362061
-0.359983
-0.358111
-0.356551
-0.355471
-0.353787
-0.351325
-0.347986
-0.342749
-0.336756
-0.33208
-0.328156
-0.32507
-0.322981
-0.319794
-0.315342
-0.309556
-0.300978
-0.287853
-0.267779
-0.239486
-0.203896
-0.163202
-0.118677
-0.0730042
-0.0313146
0.00322984
0.0305755
0.0514518
0.0668641
0.0778379
0.0852777
0.089909
0.0922927
0.0928945
0.0920947
0.0902093
0.0874988
0.0841816
0.0804323
0.0763884
0.0721536
0.0678016
0.0633908
0.058965
0.0545515
0.0501588
0.0457991
0.0414676
0.0371542
0.0328485
0.0285409
0.0242206
0.0198873
0.0155281
0.0111519
0.00683793
0.000616033
0.163923
0.0926583
0.00857564
-0.0238365
-0.0254243
-0.0217458
-0.0226563
-0.029214
-0.0398606
-0.0530977
-0.0678961
-0.0837177
-0.100302
-0.117977
-0.136584
-0.155861
-0.176028
-0.197492
-0.219454
-0.24021
-0.257554
-0.270777
-0.281049
-0.288318
-0.29409
-0.298402
-0.301264
-0.305545
-0.311206
-0.318158
-0.32761
-0.336677
-0.342926
-0.347786
-0.351325
-0.353638
-0.357057
-0.3615
-0.366841
-0.373861
-0.380205
-0.38432
-0.387386
-0.389524
-0.390886
-0.39285
-0.395272
-0.397998
-0.400243
-0.401752
-0.403339
-0.404491
-0.405135
-0.405399
-0.405508
-0.405593
-0.405484
-0.405022
-0.403691
-0.401415
-0.399225
-0.397184
-0.395449
-0.394228
-0.392311
-0.389524
-0.385731
-0.379772
-0.372955
-0.367582
-0.363018
-0.359405
-0.356942
-0.353171
-0.34794
-0.341143
-0.331085
-0.315743
-0.29241
-0.25971
-0.218828
-0.172449
-0.122277
-0.0715418
-0.0259862
0.0111274
0.0399598
0.0614827
0.0769179
0.0874862
0.094246
0.0980384
0.0995206
0.0992139
0.0975352
0.0948318
0.0913758
0.0873852
0.0830412
0.078483
0.0738121
0.0690956
0.0643871
0.059726
0.0551282
0.0506012
0.0461454
0.0417484
0.0373919
0.0330553
0.0287238
0.0243812
0.0200233
0.0156376
0.0112345
0.00688912
0.000635436
0.179809
0.108673
0.0248686
-0.00709644
-0.00808408
-0.00365623
-0.00369164
-0.00929155
-0.0189417
-0.0311915
-0.0450733
-0.060054
-0.076312
-0.0939912
-0.113183
-0.133799
-0.15634
-0.181312
-0.207821
-0.233603
-0.255658
-0.272716
-0.286103
-0.295643
-0.303277
-0.309019
-0.312837
-0.318555
-0.326129
-0.33547
-0.348254
-0.360601
-0.36914
-0.3758
-0.380666
-0.383852
-0.388567
-0.394697
-0.402082
-0.411819
-0.420634
-0.426367
-0.430653
-0.433657
-0.435578
-0.438355
-0.441781
-0.445657
-0.448888
-0.451103
-0.453486
-0.455263
-0.456321
-0.456834
-0.457099
-0.457394
-0.457455
-0.457091
-0.455649
-0.452918
-0.450272
-0.447842
-0.445787
-0.44436
-0.442121
-0.438784
-0.434216
-0.426971
-0.418582
-0.412031
-0.406556
-0.40226
-0.399362
-0.394941
-0.388739
-0.380683
-0.36875
-0.350533
-0.322782
-0.283964
-0.235694
-0.181488
-0.123797
-0.0666593
-0.0165171
0.02339
0.053627
0.0755253
0.0906152
0.10036
0.106035
0.108618
0.108853
0.107322
0.104481
0.100686
0.096232
0.0913517
0.0862305
0.0810066
0.0757736
0.0705952
0.0655144
0.0605584
0.0557389
0.0510555
0.0464987
0.0420379
0.0376426
0.0332828
0.028932
0.024568
0.0201849
0.0157681
0.011332
0.00694859
0.000660175
0.19798
0.127026
0.0436123
0.0122701
0.0121341
0.01765
0.0189093
0.014762
0.00668398
-0.00391984
-0.0161539
-0.0296306
-0.0446353
-0.0614537
-0.080518
-0.102144
-0.126879
-0.155815
-0.18801
-0.220548
-0.249222
-0.271813
-0.28976
-0.3027
-0.313125
-0.320983
-0.326216
-0.334067
-0.3445
-0.357427
-0.375235
-0.392545
-0.404534
-0.413894
-0.420741
-0.425229
-0.431879
-0.440534
-0.450979
-0.464786
-0.477368
-0.48556
-0.491698
-0.496016
-0.498777
-0.502772
-0.507742
-0.513425
-0.518273
-0.521648
-0.525311
-0.528162
-0.529925
-0.530848
-0.531332
-0.531902
-0.532271
-0.532159
-0.530835
-0.527942
-0.524934
-0.52203
-0.519518
-0.517728
-0.514893
-0.510782
-0.505166
-0.496338
-0.486249
-0.478241
-0.471377
-0.465923
-0.462185
-0.456448
-0.448534
-0.43826
-0.423098
-0.400072
-0.365337
-0.317147
-0.257723
-0.191855
-0.123412
-0.0576724
-0.00184438
0.0410732
0.0724205
0.0941541
0.108261
0.116573
0.120569
0.121443
0.119968
0.116816
0.112486
0.107325
0.10165
0.0957041
0.0896677
0.0836724
0.0778036
0.072107
0.0666105
0.0613348
0.0562882
0.0514595
0.0468198
0.042319
0.0379067
0.0335404
0.0291816
0.0248006
0.0203912
0.015937
0.0114599
0.00702074
0.000699386
0.218115
0.147409
0.0645209
0.0340189
0.0350414
0.0420512
0.0451314
0.0430901
0.0373683
0.0293401
0.0198415
0.00914066
-0.00315197
-0.0178107
-0.0353735
-0.0568485
-0.0828684
-0.115702
-0.154707
-0.19608
-0.234029
-0.264646
-0.289419
-0.307514
-0.322146
-0.333218
-0.340595
-0.351686
-0.366468
-0.384858
-0.410326
-0.43517
-0.452362
-0.465764
-0.475551
-0.481963
-0.491454
-0.503787
-0.518645
-0.538232
-0.555968
-0.567444
-0.576025
-0.582063
-0.585929
-0.591523
-0.598461
-0.606359
-0.613006
-0.617585
-0.622494
-0.626173
-0.62839
-0.629508
-0.630103
-0.630787
-0.631052
-0.630556
-0.628126
-0.623364
-0.618802
-0.614671
-0.611213
-0.608835
-0.60511
-0.599523
-0.591907
-0.579897
-0.566096
-0.555475
-0.546724
-0.539919
-0.535365
-0.52844
-0.518671
-0.505988
-0.487216
-0.458566
-0.414969
-0.354221
-0.279424
-0.197685
-0.115427
-0.0395863
0.0221466
0.0675277
0.0990372
0.119499
0.131526
0.137394
0.138801
0.137264
0.133554
0.128324
0.122058
0.115161
0.107952
0.100674
0.0935146
0.0865828
0.0799432
0.0736223
0.0676271
0.0620004
0.0567058
0.0517367
0.04704
0.0425358
0.0381453
0.033802
0.0294537
0.0250651
0.0206328
0.0161389
0.0116127
0.00709502
0.000750608
0.238974
0.168571
0.0863311
0.0568702
0.0593387
0.0682517
0.073692
0.0744417
0.0719483
0.0675941
0.062199
0.0559479
0.0482795
0.0382411
0.0247648
0.00640283
-0.0190009
-0.0543453
-0.100391
-0.152889
-0.20368
-0.24613
-0.281253
-0.307158
-0.328202
-0.34417
-0.354838
-0.370896
-0.392387
-0.419171
-0.456268
-0.492246
-0.516946
-0.536145
-0.550121
-0.559304
-0.572909
-0.590458
-0.61152
-0.639229
-0.664391
-0.68084
-0.69324
-0.70203
-0.707688
-0.715893
-0.72608
-0.737732
-0.747649
-0.754508
-0.761883
-0.767418
-0.770696
-0.772305
-0.773076
-0.773869
-0.77412
-0.773276
-0.769842
-0.763671
-0.757768
-0.752249
-0.747605
-0.74431
-0.739134
-0.731865
-0.722179
-0.707438
-0.691178
-0.678301
-0.667111
-0.658133
-0.651898
-0.642287
-0.629129
-0.611974
-0.586545
-0.547757
-0.489081
-0.407348
-0.306974
-0.200072
-0.0980272
-0.00978784
0.0574093
0.103641
0.133506
0.15095
0.159694
0.16206
0.160241
0.155621
0.1491
0.14123
0.132589
0.123578
0.11457
0.105758
0.0973271
0.0893681
0.0818887
0.0749086
0.0684267
0.0624038
0.056893
0.0518401
0.0471536
0.0427147
0.0384042
0.0341205
0.029803
0.0254151
0.0209574
0.0164084
0.0118183
0.00718763
0.000838137
0.259011
0.188948
0.107423
0.0791214
0.0832249
0.0943049
0.102473
0.10653
0.107965
0.108243
0.108249
0.108171
0.107395
0.104792
0.0989748
0.0876996
0.0675516
0.0336569
-0.0173858
-0.0818457
-0.149282
-0.208432
-0.258887
-0.296806
-0.327933
-0.351727
-0.367707
-0.391819
-0.424089
-0.464313
-0.520039
-0.573733
-0.609912
-0.637535
-0.657379
-0.670217
-0.689047
-0.71338
-0.742369
-0.780019
-0.813801
-0.835705
-0.852196
-0.8639
-0.871437
-0.882359
-0.895822
-0.911096
-0.923609
-0.932109
-0.940898
-0.946454
-0.949235
-0.950117
-0.950466
-0.950565
-0.948948
-0.945055
-0.935921
-0.922286
-0.910891
-0.901325
-0.893783
-0.888775
-0.881091
-0.869824
-0.855059
-0.832895
-0.808995
-0.79177
-0.778236
-0.767951
-0.761251
-0.751228
-0.736647
-0.717516
-0.688545
-0.642833
-0.569961
-0.463596
-0.330072
-0.191332
-0.0661478
0.0350413
0.10651
0.151438
0.177057
0.189039
0.192415
0.189921
0.183741
0.175256
0.16528
0.154535
0.143357
0.132087
0.121067
0.110597
0.100835
0.0918044
0.0834679
0.0758278
0.0688006
0.0624085
0.0567122
0.0516415
0.0470553
0.0427716
0.0386142
0.0344432
0.0301903
0.0258167
0.0213336
0.0167227
0.0120619
0.00729191
0.000948275
0.277568
0.207859
0.127071
0.0999894
0.105819
0.119203
0.130319
0.138005
0.143861
0.149508
0.15599
0.163645
0.172029
0.18007
0.186198
0.187638
0.179572
0.154457
0.104117
0.0289752
-0.0600153
-0.144218
-0.219265
-0.276549
-0.32346
-0.35907
-0.382626
-0.418078
-0.46614
-0.525519
-0.606496
-0.68141
-0.729897
-0.766327
-0.792489
-0.809609
-0.834712
-0.866117
-0.90313
-0.950621
-0.993702
-1.02371
-1.04784
-1.06577
-1.07756
-1.09494
-1.11729
-1.1436
-1.16636
-1.18139
-1.19641
-1.20592
-1.2095
-1.20935
-1.20812
-1.20494
-1.19882
-1.1883
-1.1684
-1.14446
-1.12686
-1.11254
-1.10161
-1.09413
-1.0829
-1.06891
-1.05236
-1.03066
-1.01046
-0.995187
-0.981307
-0.969566
-0.960896
-0.94715
-0.928419
-0.903137
-0.864285
-0.802822
-0.703154
-0.550396
-0.355891
-0.165773
-0.0103624
0.101809
0.1715
0.209177
0.22644
0.230949
0.228151
0.220334
0.209507
0.196853
0.183158
0.169027
0.154888
0.140987
0.127649
0.115299
0.104101
0.0939542
0.084728
0.0763895
0.0688185
0.0620662
0.0562347
0.0512425
0.0468691
0.0428402
0.0389068
0.0348914
0.0307165
0.0263513
0.0218299
0.0171368
0.0123877
0.00744677
0.00109262
0.294174
0.224811
0.144737
0.118882
0.126432
0.142119
0.156211
0.1676
0.178092
0.189473
0.203081
0.219558
0.238892
0.260384
0.282874
0.30365
0.316952
0.312187
0.273787
0.194135
0.0820803
-0.0315797
-0.135873
-0.216923
-0.284864
-0.338161
-0.374238
-0.430452
-0.510585
-0.615251
-0.761103
-0.890385
-0.970054
-1.02597
-1.062
-1.08426
-1.11494
-1.14917
-1.18397
-1.22059
-1.24808
-1.26712
-1.28386
-1.29822
-1.30849
-1.32456
-1.34655
-1.37471
-1.39816
-1.41227
-1.42628
-1.43158
-1.43039
-1.42645
-1.42319
-1.41765
-1.40749
-1.39078
-1.35911
-1.32059
-1.29381
-1.27317
-1.25808
-1.2487
-1.23361
-1.21136
-1.18533
-1.14272
-1.10211
-1.07704
-1.06124
-1.05155
-1.04561
-1.03767
-1.02555
-1.00792
-0.978172
-0.927256
-0.829921
-0.644967
-0.385356
-0.132504
0.0618462
0.187497
0.253356
0.280325
0.285961
0.279059
0.266225
0.250942
0.23452
0.217379
0.199939
0.182681
0.165777
0.149284
0.133615
0.119377
0.1068
0.0956272
0.0856162
0.0766417
0.0684818
0.0613241
0.055373
0.0505447
0.0465066
0.0428494
0.0392298
0.035419
0.0313393
0.0269816
0.0224114
0.0176208
0.0127746
0.00764505
0.00127385
0.307821
0.238719
0.159268
0.134535
0.143641
0.16138
0.178113
0.19288
0.207646
0.224387
0.244825
0.269962
0.300377
0.336217
0.377254
0.421869
0.464897
0.493759
0.483086
0.407967
0.270737
0.115394
-0.0468818
-0.198087
-0.340909
-0.462003
-0.546507
-0.675054
-0.83879
-1.02
-1.20255
-1.30803
-1.35145
-1.37616
-1.38993
-1.3962
-1.40267
-1.40905
-1.41403
-1.42088
-1.43963
-1.47674
-1.52412
-1.57309
-1.60829
-1.6615
-1.73344
-1.82009
-1.8828
-1.9153
-1.93682
-1.92705
-1.90333
-1.8759
-1.85531
-1.82112
-1.76629
-1.69072
-1.58109
-1.4924
-1.46313
-1.44463
-1.4231
-1.40677
-1.38969
-1.38595
-1.38798
-1.38901
-1.38154
-1.37518
-1.36739
-1.35911
-1.35329
-1.34505
-1.33249
-1.31101
-1.2657
-1.17596
-1.00031
-0.706887
-0.360609
-0.0619241
0.15508
0.286218
0.341866
0.35206
0.341417
0.322655
0.301151
0.279403
0.258035
0.237062
0.216514
0.196535
0.176963
0.157751
0.139505
0.123171
0.109189
0.0971132
0.0864629
0.0767603
0.0679481
0.0603671
0.0543347
0.0497367
0.0461132
0.0428929
0.0396188
0.0360194
0.0320293
0.0276636
0.0230287
0.018125
0.0131789
0.00785125
0.00147924
0.317915
0.248927
0.169941
0.14615
0.156498
0.175806
0.194574
0.212004
0.230162
0.251202
0.277126
0.309391
0.349017
0.397112
0.454664
0.521692
0.595356
0.663596
0.694073
0.639041
0.47031
0.220019
-0.101377
-0.406767
-0.651711
-0.817091
-0.920106
-1.05332
-1.16987
-1.26594
-1.38501
-1.47606
-1.50707
-1.53329
-1.55933
-1.57831
-1.60391
-1.61311
-1.59673
-1.525
-1.4391
-1.44018
-1.48177
-1.54642
-1.60574
-1.71524
-1.90573
-2.17731
-2.38261
-2.47922
-2.54678
-2.54292
-2.4965
-2.43718
-2.39069
-2.30904
-2.17216
-1.97271
-1.67806
-1.42071
-1.24885
-1.1369
-1.08326
-1.05931
-1.04162
-1.0632
-1.12413
-1.24105
-1.37618
-1.46403
-1.52118
-1.55236
-1.57031
-1.59273
-1.61237
-1.62629
-1.62271
-1.5706
-1.34789
-0.884745
-0.37751
0.0137407
0.267508
0.397433
0.432383
0.419127
0.389322
0.357054
0.326565
0.298844
0.273728
0.250805
0.229142
0.207745
0.186123
0.164543
0.144022
0.125924
0.110934
0.098488
0.087456
0.0772028
0.0676999
0.0595473
0.0533167
0.0488736
0.0456292
0.0428301
0.0398939
0.0365015
0.0325975
0.0282246
0.0235335
0.0185274
0.0135031
0.00799595
0.00168176
0.324787
0.255806
0.17711
0.154066
0.165307
0.185672
0.205862
0.225174
0.245724
0.269842
0.299667
0.33703
0.383339
0.44029
0.510049
0.594067
0.692107
0.794329
0.867277
0.840009
0.637276
0.276372
-0.142645
-0.4625
-0.686722
-0.837948
-0.934309
-1.04533
-1.13281
-1.28665
-1.6028
-1.83462
-1.92719
-1.97139
-1.9899
-1.99331
-1.98269
-1.9319
-1.82311
-1.56995
-1.32438
-1.3157
-1.4573
-1.70244
-1.90169
-2.2147
-2.57976
-2.9349
-3.11097
-3.14224
-3.11339
-3.02025
-2.91603
-2.82005
-2.74632
-2.61941
-2.41179
-2.11118
-1.59802
-1.18436
-1.23102
-1.38374
-1.50441
-1.56502
-1.6365
-1.68182
-1.6952
-1.67776
-1.66524
-1.66108
-1.65918
-1.65801
-1.65671
-1.65579
-1.65382
-1.64887
-1.64295
-1.59439
-1.36063
-0.859567
-0.307456
0.118544
0.381172
0.496523
0.506801
0.471289
0.424619
0.380944
0.342777
0.310554
0.283768
0.260834
0.239304
0.217179
0.193973
0.170413
0.148212
0.129014
0.113469
0.100691
0.0893465
0.0783635
0.0680805
0.0592434
0.0526204
0.0481585
0.0451478
0.0426648
0.0400065
0.0367971
0.032978
0.02861
0.0238828
0.018796
0.0137216
0.00805864
0.00185458
0.32942
0.2604
0.181886
0.159407
0.171262
0.192328
0.21349
0.234105
0.256291
0.282535
0.31506
0.355921
0.40686
0.469935
0.548107
0.643947
0.759235
0.886458
0.993798
0.986546
0.768014
0.38494
0.05614
-0.198974
-0.390193
-0.54744
-0.713188
-0.973683
-1.32856
-1.75036
-2.13876
-2.19784
-2.1872
-2.19856
-2.22437
-2.23673
-2.24032
-2.20151
-2.09457
-1.77112
-1.36759
-1.4409
-1.64375
-1.94726
-2.20484
-2.61455
-3.05805
-3.43621
-3.53046
-3.48015
-3.35087
-3.19116
-3.06083
-2.96183
-2.89202
-2.7743
-2.56549
-2.25178
-1.8587
-1.83216
-1.94182
-1.97277
-1.94004
-1.91013
-1.84115
-1.74787
-1.65218
-1.57204
-1.55627
-1.57157
-1.59556
-1.61697
-1.6301
-1.64784
-1.66126
-1.66464
-1.6407
-1.56308
-1.31583
-0.800568
-0.229646
0.21095
0.472745
0.572868
0.561755
0.508186
0.448554
0.396448
0.353287
0.319096
0.291845
0.268948
0.247098
0.224032
0.199669
0.175141
0.152427
0.133
0.1172
0.104118
0.0919347
0.0799904
0.0685399
0.0589103
0.0518817
0.0473937
0.0445945
0.0423968
0.0399885
0.0369449
0.0332072
0.0288526
0.0241041
0.0189579
0.0138551
0.00806222
0.0019932
0.332624
0.263556
0.185163
0.163106
0.17538
0.196932
0.218773
0.240305
0.263638
0.291367
0.325794
0.369103
0.423278
0.490632
0.574643
0.678669
0.805913
0.950917
1.08318
1.09175
0.871623
0.554945
0.357232
0.131065
-0.0880939
-0.335909
-0.722838
-1.40896
-2.07427
-2.3706
-2.49219
-2.34217
-2.2587
-2.22562
-2.22179
-2.22373
-2.22971
-2.20848
-2.14512
-1.8027
-1.42812
-1.48494
-1.72852
-2.17784
-2.57017
-3.08865
-3.55315
-3.84977
-3.79875
-3.63665
-3.42038
-3.23916
-3.08056
-2.93673
-2.84199
-2.74292
-2.5939
-2.4063
-2.30575
-2.3062
-2.13483
-1.89509
-1.67879
-1.5775
-1.48146
-1.41409
-1.34978
-1.32674
-1.37286
-1.43485
-1.49939
-1.55261
-1.58803
-1.62446
-1.63146
-1.65441
-1.67795
-1.61879
-1.32423
-0.767528
-0.175291
0.278355
0.539891
0.627605
0.600755
0.533561
0.465083
0.407834
0.362286
0.327431
0.299898
0.276534
0.253703
0.229306
0.203858
0.178777
0.156085
0.136793
0.120921
0.107422
0.094257
0.0811415
0.068691
0.0583946
0.0510909
0.0466395
0.0440523
0.0421091
0.0399147
0.0370107
0.0333428
0.0290031
0.0242423
0.0190524
0.013934
0.00803588
0.00210131
0.33512
0.266014
0.187724
0.165997
0.178591
0.200529
0.222906
0.245161
0.269397
0.298293
0.334222
0.379457
0.436168
0.506875
0.595431
0.705793
0.842245
1.00111
1.15245
1.17537
0.967427
0.754684
0.727809
0.527069
0.238643
-0.677259
-1.56982
-2.22648
-2.75496
-2.61504
-2.48344
-2.34393
-2.28029
-2.24746
-2.24609
-2.25017
-2.26326
-2.24761
-2.18845
-1.87929
-1.52028
-1.56152
-1.8664
-2.56155
-3.07928
-3.43376
-3.78679
-3.71281
-3.60873
-3.54609
-3.38905
-3.19337
-3.03536
-2.88398
-2.75399
-2.65527
-2.58747
-2.58814
-2.71752
-2.45434
-1.97729
-1.51591
-1.30759
-1.26669
-1.30845
-1.42285
-1.43282
-1.44235
-1.51627
-1.60837
-1.71398
-1.82547
-1.90734
-1.95354
-1.93654
-1.95133
-1.94127
-1.78868
-1.37443
-0.754891
-0.137503
0.32931
0.592195
0.670678
0.631167
0.553438
0.478814
0.41817
0.371303
0.336058
0.308003
0.283714
0.259572
0.233813
0.207428
0.181935
0.159293
0.140163
0.124296
0.110212
0.0961351
0.0819038
0.0685781
0.0577563
0.0502799
0.0459096
0.0435353
0.0418256
0.0398206
0.0370383
0.0334315
0.0291065
0.0243375
0.0191133
0.0139847
0.00799761
0.00218964
0.336936
0.26782
0.189592
0.168094
0.180929
0.203164
0.225934
0.248717
0.27362
0.303373
0.340408
0.387061
0.445629
0.518781
0.610624
0.725514
0.868459
1.03704
1.20161
1.23571
1.04772
0.935649
1.07956
1.05953
0.964611
-1.07499
-3.89327
-2.44508
-2.84495
-2.49659
-2.47685
-2.33711
-2.27386
-2.24837
-2.24432
-2.24408
-2.26448
-2.2583
-2.23654
-1.96797
-1.66386
-1.72775
-2.01112
-3.01209
-4.09969
-3.48972
-3.8326
-3.69325
-3.63795
-3.54457
-3.37477
-3.1613
-3.11486
-3.2682
-2.77763
-2.54923
-2.57516
-2.75939
-2.91537
-2.36155
-1.60473
-1.09259
-1.27204
-1.81077
-1.5403
-1.59123
-1.52136
-1.47799
-1.5344
-1.6325
-1.76944
-2.02333
-2.28828
-2.19644
-2.21136
-2.31072
-2.31969
-2.06635
-1.48212
-0.772251
-0.120915
0.361563
0.628481
0.701449
0.653114
0.568565
0.490176
0.4275
0.379864
0.344146
0.315348
0.28991
0.264376
0.237446
0.210318
0.184525
0.162013
0.142825
0.126782
0.112166
0.0973044
0.0822327
0.0682459
0.0570704
0.0495176
0.0452568
0.0430806
0.0415711
0.0397216
0.0370373
0.0334798
0.0291678
0.0243942
0.019145
0.0140109
0.00795486
0.00225344
0.338111
0.269018
0.190848
0.169461
0.182457
0.204896
0.227929
0.251058
0.276402
0.306719
0.344483
0.39207
0.45186
0.526615
0.620604
0.738431
0.885547
1.06033
1.23332
1.27383
1.10036
1.06076
1.31785
1.4856
1.59979
0.405217
-2.23715
-2.27115
-2.26259
-2.27653
-2.04043
-1.81916
-1.88259
-2.05695
-2.66413
-2.54929
-2.45702
-2.56483
-2.8663
-2.98988
-2.23347
-1.3173
-0.789982
-0.964974
-2.61689
-2.25822
-2.33347
-2.50619
-2.56926
-2.28591
-1.58165
-0.797565
-0.116287
0.37994
0.651214
0.721264
0.667459
0.578832
0.498222
0.4343
0.38614
0.350018
0.320621
0.294268
0.267695
0.239946
0.212304
0.186373
0.163822
0.144552
0.128331
0.113334
0.0979519
0.0823426
0.067939
0.056551
0.0489661
0.0447924
0.0427585
0.0413887
0.0396459
0.0370284
0.0335046
0.0292021
0.024426
0.0191614
0.0140229
0.00792257
0.00229431
0.339821
0.270806
0.19275
0.171466
0.184699
0.207454
0.230885
0.254527
0.280523
0.311678
0.350522
0.399493
0.461092
0.538214
0.635353
0.757475
0.910632
1.09443
1.27975
1.32879
1.18558
1.25892
1.67906
2.09459
2.38419
2.07372
-2.23323
-2.28073
-2.28447
-2.36756
-2.18903
-2.07259
-2.07513
-2.085
-2.26907
-2.42327
-2.39688
-2.56057
-2.98922
-2.98976
-1.95588
-0.87767
-0.416837
-0.578202
-2.27083
-2.29473
-2.46426
-2.71805
-2.89721
-2.62221
-1.76111
-0.854836
-0.119022
0.402583
0.683042
0.749997
0.688754
0.59478
0.511297
0.445654
0.39665
0.359727
0.329189
0.301223
0.272974
0.243973
0.215548
0.189424
0.166683
0.147139
0.130511
0.114876
0.0987143
0.0823389
0.067355
0.0556848
0.0480788
0.0440556
0.0422491
0.0410966
0.0395177
0.0370023
0.0335302
0.0292434
0.0244643
0.0191784
0.0140325
0.00786837
0.00235293
0.342023
0.273133
0.195213
0.174043
0.187589
0.210769
0.234719
0.259025
0.285872
0.318116
0.358364
0.409134
0.47307
0.55323
0.654363
0.781828
0.942308
1.13682
1.33719
1.39886
1.30653
1.51062
2.10479
2.71856
3.15339
3.08212
-2.25681
-2.32297
-2.36871
-2.49478
-2.38907
-2.29604
-2.23823
-2.04417
-2.04406
-2.31261
-2.31933
-2.58217
-3.08342
-2.83255
-1.49387
-0.34809
-0.0904864
-0.304153
-2.44969
-2.46365
-2.6241
-2.88629
-3.15316
-2.95356
-2.00016
-0.971641
-0.15289
0.416284
0.717576
0.785407
0.717689
0.618511
0.531846
0.464091
0.413506
0.37473
0.341969
0.311391
0.280655
0.250032
0.220787
0.194271
0.170946
0.150641
0.13302
0.116265
0.0990515
0.0817878
0.0662078
0.0542963
0.0467472
0.0429793
0.041509
0.0406608
0.0393051
0.0369279
0.0335269
0.029264
0.0244853
0.0191747
0.0140237
0.00777133
0.00242682
0.344682
0.275943
0.198196
0.177165
0.191081
0.214778
0.239366
0.264479
0.292364
0.325934
0.367885
0.420838
0.487596
0.57139
0.677231
0.810842
0.979458
1.18536
1.40185
1.48162
1.44633
1.77236
2.50701
3.24653
3.75942
3.78127
-2.31802
-2.36931
-2.44633
-2.53126
-2.47772
-2.42091
-2.30733
-1.93674
-1.818
-2.14006
-2.18471
-2.58093
-3.07842
-2.50242
-0.923705
0.155077
0.0975183
-0.207451
-2.48673
-2.57751
-2.76002
-3.00931
-3.31051
-3.15647
-2.22602
-1.13717
-0.2293
0.412352
0.750536
0.825648
0.754075
0.651219
0.56176
0.491264
0.437729
0.395567
0.359215
0.324946
0.291093
0.258332
0.228188
0.201097
0.17664
0.154939
0.135677
0.117354
0.098837
0.0806296
0.0645141
0.0524204
0.0450024
0.0415838
0.0405398
0.0400678
0.038986
0.0367785
0.0334674
0.0292396
0.0244688
0.0191336
0.0139839
0.00761388
0.00252076
0.348231
0.27964
0.202115
0.181335
0.195731
0.220101
0.245548
0.271746
0.30102
0.336367
0.38059
0.436449
0.506935
0.595459
0.70727
0.848284
1.02594
1.24306
1.47628
1.58528
1.59391
1.98329
2.7857
3.58292
4.13449
4.17535
-2.35618
-2.34982
-2.35876
-2.38074
-2.37837
-2.30575
-2.13352
-1.64839
-1.40112
-1.72703
-1.81946
-2.25109
-2.72469
-2.11644
-0.62246
0.272786
-0.0818504
-0.347014
-2.45955
-2.57786
-2.69502
-2.8797
-3.19659
-3.12806
-2.33301
-1.32449
-0.368028
0.357159
0.753337
0.85461
0.793921
0.697936
0.609782
0.536319
0.477492
0.429047
0.386367
0.346018
0.307277
0.271493
0.239787
0.211271
0.184647
0.160601
0.138858
0.118244
0.0979494
0.0785652
0.0619685
0.0497949
0.0426254
0.0396612
0.0391495
0.0391499
0.0384139
0.0364269
0.0332443
0.0290817
0.0243444
0.0189904
0.0138672
0.00730211
0.00267207
0.351555
0.282997
0.205639
0.185221
0.200057
0.225017
0.251256
0.27847
0.309039
0.346039
0.392368
0.450924
0.52479
0.617537
0.734473
0.881309
1.06483
1.28687
1.52826
1.66836
1.66671
1.96844
2.70208
3.4855
4.0633
4.11685
-2.29211
-2.27868
-2.26157
-2.29371
-2.15581
-1.89169
-1.70759
-1.27926
-0.887763
-1.27377
-1.41775
-1.77939
-2.27526
-1.89428
-0.640624
0.0100972
-0.591339
-0.790432
-2.55628
-2.61265
-2.62848
-2.70022
-2.84315
-2.74863
-2.18105
-1.33671
-0.445876
0.279164
0.708165
0.846448
0.82251
0.746516
0.662579
0.585439
0.519809
0.463908
0.413888
0.366582
0.32216
0.282534
0.24805
0.217014
0.188416
0.162983
0.140423
0.118906
0.0977746
0.07755
0.060448
0.0480584
0.0408765
0.0380843
0.0378637
0.0381597
0.0376572
0.0358427
0.03279
0.0287203
0.0240547
0.0187081
0.0136534
0.00684092
0.00285305
0.353792
0.285207
0.207951
0.187831
0.202952
0.228293
0.255059
0.282958
0.314396
0.352502
0.400237
0.460581
0.53668
0.632177
0.752351
0.902632
1.08896
1.31171
1.55307
1.71834
1.70494
1.86356
2.43088
3.1058
3.66363
3.67734
-2.3969
-2.35074
-2.30388
-2.24038
-1.926
-1.482
-1.37312
-1.1361
-0.696949
-1.12229
-1.28753
-1.59521
-2.07105
-1.82995
-0.822544
-0.467026
-1.16147
-1.30859
-2.63233
-2.6636
-2.65693
-2.67861
-2.70933
-2.5674
-2.01966
-1.28249
-0.471563
0.226784
0.670511
0.84462
0.85021
0.786647
0.703413
0.621408
0.54952
0.487525
0.431549
0.378819
0.330285
0.287819
0.251127
0.218537
0.189366
0.163993
0.141489
0.119935
0.0984415
0.0777857
0.0601903
0.0473848
0.0399906
0.0371656
0.0370283
0.0374452
0.037064
0.035352
0.0323884
0.028391
0.0237864
0.0184523
0.0134624
0.00644994
0.00299861
0.355493
0.286881
0.209704
0.189822
0.205155
0.230784
0.257953
0.286376
0.318477
0.357425
0.40623
0.467936
0.545717
0.643279
0.765843
0.918575
1.10658
1.32888
1.56689
1.74807
1.73844
1.75936
2.11113
2.58233
3.01903
2.8498
-2.33608
-2.32289
-2.25934
-2.09139
-1.67416
-1.2163
-1.17566
-1.09894
-0.713335
-1.162
-1.31601
-1.56081
-1.99331
-1.87756
-1.1704
-1.06386
-1.72883
-1.84388
-2.66484
-2.6644
-2.64466
-2.65977
-2.64182
-2.46268
-1.94359
-1.24306
-0.490733
0.187876
0.646286
0.849854
0.876841
0.820188
0.735042
0.647899
0.570643
0.503666
0.443065
0.386561
0.335462
0.29136
0.253457
0.220026
0.190526
0.165155
0.142656
0.121026
0.099274
0.0782678
0.0602314
0.0470458
0.0394293
0.03653
0.0364149
0.0368909
0.0365802
0.0349365
0.0320382
0.0280976
0.0235441
0.0182238
0.0132897
0.0061154
0.00311231
0.356698
0.288077
0.210943
0.191225
0.206715
0.232556
0.260011
0.288804
0.321377
0.360925
0.410491
0.473158
0.552131
0.651141
0.775361
0.929737
1.11872
1.3402
1.57432
1.7611
1.77296
1.70167
1.83575
2.01875
2.29056
1.16164
-2.84262
-2.22791
-2.05473
-1.85565
-1.45732
-1.13377
-1.10026