/*--------------------------------*- C++ -*----------------------------------*\
| =========                 |                                                 |
| \\      /  F ield         | OpenFOAM: The Open Source CFD Toolbox           |
|  \\    /   O peration     | Version:  v2006                                 |
|   \\  /    A nd           | Website:  www.openfoam.com                      |
|    \\/     M anipulation  |                                                 |
\*---------------------------------------------------------------------------*/
FoamFile
{
    version     2.0;
    format      ascii;
    class       volScalarField;
    location    "0.01";
    object      omega;
}
// * * * * * * * * * * * * * * * * * * * * * * * * * * * * * * * * * * * * * //

dimensions      [0 0 -1 0 0 0 0];


internalField   nonuniform List<scalar> 
374400
(
135.87
133.211
132.218
131.94
131.953
132.053
132.162
132.252
132.322
132.382
132.439
132.503
132.575
132.661
132.759
132.872
132.993
133.13
133.27
133.407
133.52
133.608
133.673
133.715
133.753
133.772
133.788
133.813
133.835
133.857
133.881
133.913
133.94
133.966
133.98
133.992
134.011
134.029
134.048
134.068
134.095
134.116
134.137
134.148
134.158
134.173
134.186
134.202
134.213
134.223
134.235
134.244
134.253
134.258
134.262
134.268
134.272
134.275
134.279
134.287
134.293
134.298
134.3
134.301
134.301
134.3
134.296
134.291
134.288
134.286
134.282
134.279
134.277
134.271
134.264
134.252
134.235
134.209
134.173
134.122
134.058
133.979
133.889
133.791
133.693
133.602
133.522
133.452
133.392
133.345
133.308
133.281
133.265
133.257
133.258
133.267
133.282
133.304
133.331
133.364
133.402
133.443
133.489
133.538
133.592
133.648
133.707
133.767
133.833
133.894
133.968
134.026
134.116
134.16
134.286
134.301
134.529
135.87
133.211
132.217
131.938
131.951
132.049
132.157
132.245
132.315
132.374
132.432
132.496
132.57
132.658
132.759
132.875
133.002
133.144
133.29
133.433
133.551
133.642
133.71
133.753
133.793
133.813
133.829
133.855
133.877
133.9
133.924
133.957
133.984
134.011
134.025
134.037
134.057
134.075
134.094
134.114
134.141
134.162
134.183
134.194
134.203
134.218
134.231
134.245
134.255
134.265
134.276
134.284
134.292
134.296
134.3
134.304
134.308
134.308
134.308
134.314
134.319
134.322
134.323
134.323
134.321
134.319
134.312
134.306
134.301
134.297
134.292
134.288
134.285
134.278
134.269
134.256
134.237
134.209
134.169
134.114
134.044
133.961
133.867
133.767
133.667
133.577
133.497
133.428
133.372
133.326
133.292
133.268
133.254
133.249
133.252
133.262
133.28
133.303
133.332
133.366
133.404
133.447
133.493
133.543
133.597
133.653
133.713
133.773
133.839
133.9
133.975
134.033
134.123
134.167
134.294
134.308
134.538
135.868
133.208
132.212
131.932
131.942
132.037
132.142
132.227
132.294
132.352
132.408
132.472
132.547
132.638
132.743
132.866
133.001
133.153
133.31
133.463
133.59
133.689
133.762
133.81
133.853
133.874
133.893
133.922
133.946
133.973
134
134.036
134.065
134.094
134.11
134.123
134.145
134.164
134.185
134.206
134.234
134.256
134.278
134.289
134.299
134.315
134.328
134.342
134.353
134.362
134.372
134.38
134.388
134.391
134.395
134.398
134.401
134.401
134.398
134.402
134.405
134.407
134.407
134.407
134.405
134.401
134.394
134.384
134.376
134.371
134.363
134.359
134.355
134.346
134.337
134.321
134.3
134.267
134.22
134.154
134.073
133.979
133.875
133.765
133.659
133.563
133.479
133.409
133.352
133.306
133.273
133.25
133.237
133.233
133.238
133.249
133.268
133.293
133.323
133.358
133.397
133.441
133.488
133.538
133.593
133.65
133.711
133.771
133.838
133.9
133.975
134.034
134.126
134.17
134.299
134.313
134.547
135.868
133.206
132.208
131.925
131.931
132.021
132.123
132.205
132.269
132.326
132.382
132.448
132.528
132.626
132.743
132.881
133.033
133.207
133.388
133.565
133.709
133.822
133.904
133.958
134.007
134.032
134.052
134.085
134.113
134.142
134.174
134.215
134.247
134.279
134.296
134.311
134.334
134.354
134.376
134.398
134.427
134.45
134.472
134.484
134.494
134.508
134.52
134.532
134.541
134.549
134.556
134.561
134.566
134.568
134.57
134.57
134.569
134.564
134.556
134.556
134.555
134.553
134.551
134.549
134.542
134.535
134.523
134.506
134.491
134.48
134.467
134.46
134.453
134.44
134.426
134.405
134.377
134.334
134.273
134.189
134.086
133.971
133.85
133.725
133.607
133.504
133.418
133.347
133.291
133.248
133.217
133.198
133.189
133.189
133.197
133.212
133.234
133.262
133.295
133.332
133.374
133.419
133.468
133.521
133.577
133.635
133.697
133.759
133.827
133.89
133.967
134.027
134.121
134.166
134.298
134.313
134.552
135.865
133.199
132.198
131.909
131.908
131.991
132.083
132.157
132.214
132.264
132.315
132.378
132.457
132.559
132.684
132.835
133.005
133.202
133.408
133.612
133.779
133.909
134.007
134.071
134.129
134.159
134.184
134.224
134.259
134.297
134.336
134.384
134.422
134.46
134.48
134.497
134.525
134.55
134.575
134.599
134.631
134.656
134.68
134.692
134.703
134.719
134.731
134.743
134.751
134.758
134.762
134.766
134.769
134.77
134.77
134.769
134.766
134.757
134.743
134.737
134.733
134.728
134.724
134.72
134.712
134.702
134.686
134.663
134.641
134.625
134.608
134.598
134.59
134.574
134.556
134.531
134.498
134.444
134.367
134.26
134.132
133.991
133.847
133.703
133.571
133.458
133.366
133.293
133.236
133.194
133.165
133.148
133.142
133.145
133.155
133.174
133.198
133.228
133.263
133.303
133.347
133.394
133.445
133.499
133.557
133.616
133.68
133.742
133.812
133.876
133.955
134.016
134.114
134.16
134.297
134.313
134.562
135.863
133.193
132.187
131.89
131.881
131.954
132.037
132.101
132.149
132.19
132.236
132.298
132.381
132.492
132.633
132.809
133.012
133.254
133.509
133.761
133.969
134.13
134.251
134.329
134.4
134.436
134.467
134.515
134.557
134.603
134.652
134.711
134.757
134.801
134.824
134.844
134.875
134.902
134.928
134.953
134.985
135.011
135.035
135.047
135.056
135.07
135.078
135.084
135.087
135.087
135.084
135.08
135.076
135.072
135.069
135.059
135.047
135.026
134.999
134.981
134.968
134.953
134.944
134.936
134.919
134.901
134.873
134.835
134.797
134.769
134.74
134.723
134.709
134.684
134.658
134.621
134.574
134.501
134.396
134.251
134.084
133.907
133.734
133.568
133.422
133.303
133.211
133.141
133.091
133.057
133.037
133.029
133.032
133.042
133.061
133.087
133.118
133.154
133.195
133.24
133.288
133.339
133.394
133.452
133.514
133.576
133.643
133.708
133.781
133.848
133.931
133.995
134.098
134.146
134.292
134.308
134.573
135.858
133.181
132.167
131.859
131.835
131.892
131.957
132.002
132.03
132.053
132.082
132.129
132.202
132.31
132.455
132.646
132.877
133.161
133.467
133.776
134.034
134.237
134.39
134.49
134.583
134.63
134.671
134.736
134.794
134.857
134.924
134.999
135.057
135.114
135.143
135.169
135.209
135.242
135.275
135.301
135.334
135.36
135.384
135.396
135.405
135.417
135.423
135.421
135.418
135.412
135.397
135.384
135.371
135.363
135.355
135.338
135.317
135.283
135.241
135.209
135.188
135.166
135.153
135.141
135.12
135.097
135.062
135.012
134.959
134.921
134.882
134.861
134.844
134.812
134.78
134.736
134.678
134.586
134.451
134.264
134.048
133.828
133.619
133.425
133.261
133.133
133.039
132.971
132.926
132.898
132.885
132.885
132.895
132.914
132.94
132.973
133.011
133.054
133.1
133.151
133.204
133.261
133.321
133.384
133.45
133.516
133.587
133.657
133.735
133.806
133.895
133.963
134.075
134.127
134.287
134.303
134.595
135.854
133.169
132.145
131.823
131.781
131.819
131.861
131.882
131.886
131.885
131.892
131.921
131.983
132.088
132.244
132.464
132.743
133.103
133.503
133.917
134.262
134.535
134.741
134.876
134.999
135.063
135.116
135.203
135.281
135.367
135.458
135.556
135.63
135.698
135.734
135.763
135.807
135.841
135.869
135.883
135.908
135.928
135.943
135.949
135.953
135.951
135.943
135.916
135.893
135.868
135.823
135.789
135.751
135.73
135.71
135.668
135.622
135.552
135.463
135.394
135.347
135.301
135.276
135.254
135.216
135.178
135.125
135.051
134.971
134.913
134.855
134.823
134.797
134.751
134.706
134.646
134.569
134.446
134.267
134.02
133.745
133.474
133.23
133.017
132.849
132.728
132.649
132.601
132.576
132.57
132.578
132.597
132.626
132.664
132.707
132.755
132.808
132.865
132.925
132.988
133.053
133.121
133.191
133.263
133.339
133.415
133.496
133.575
133.663
133.742
133.843
133.919
134.045
134.104
134.287
134.305
134.641
135.846
133.149
132.112
131.768
131.701
131.71
131.716
131.698
131.66
131.614
131.575
131.558
131.576
131.645
131.777
131.992
132.293
132.716
133.213
133.751
134.215
134.591
134.879
135.07
135.248
135.34
135.418
135.548
135.665
135.795
135.926
136.056
136.152
136.24
136.285
136.322
136.375
136.413
136.435
136.427
136.432
136.441
136.443
136.443
136.44
136.424
136.396
136.339
136.292
136.244
136.16
136.098
136.031
135.994
135.96
135.891
135.816
135.705
135.562
135.443
135.363
135.286
135.245
135.211
135.153
135.098
135.029
134.932
134.827
134.753
134.679
134.64
134.609
134.556
134.504
134.437
134.348
134.2
133.972
133.654
133.303
132.968
132.681
132.447
132.277
132.169
132.111
132.087
132.089
132.111
132.147
132.193
132.248
132.31
132.377
132.449
132.523
132.601
132.681
132.763
132.847
132.933
133.021
133.11
133.202
133.294
133.392
133.486
133.591
133.686
133.807
133.896
134.047
134.116
134.338
134.358
134.762
135.839
133.129
132.076
131.709
131.612
131.585
131.551
131.487
131.397
131.295
131.195
131.116
131.074
131.09
131.181
131.385
131.717
132.239
132.899
133.661
134.338
134.894
135.327
135.612
135.877
136.014
136.129
136.32
136.491
136.677
136.848
137.005
137.113
137.203
137.247
137.28
137.314
137.324
137.299
137.212
137.159
137.128
137.087
137.063
137.039
136.976
136.901
136.77
136.67
136.568
136.401
136.278
136.148
136.074
136.008
135.875
135.735
135.534
135.285
135.076
134.934
134.796
134.723
134.662
134.558
134.461
134.344
134.193
134.034
133.922
133.813
133.756
133.711
133.638
133.569
133.483
133.372
133.187
132.903
132.511
132.1
131.734
131.453
131.257
131.147
131.11
131.126
131.175
131.248
131.336
131.435
131.541
131.653
131.767
131.885
132.003
132.122
132.241
132.361
132.481
132.602
132.722
132.844
132.964
133.087
133.208
133.335
133.456
133.59
133.708
133.859
133.968
134.155
134.238
134.512
134.539
135.038
135.829
133.104
132.032
131.638
131.506
131.437
131.351
131.226
131.067
130.884
130.692
130.509
130.351
130.245
130.217
130.313
130.575
131.109
131.884
132.887
133.846
134.678
135.352
135.805
136.234
136.457
136.647
136.965
137.244
137.536
137.751
137.902
137.992
138.045
138.065
138.073
138.047
137.981
137.829
137.566
137.382
137.27
137.156
137.095
137.041
136.918
136.783
136.566
136.4
136.236
135.969
135.768
135.556
135.438
135.331
135.122
134.902
134.593
134.215
133.893
133.681
133.483
133.38
133.297
133.163
133.043
132.906
132.732
132.546
132.419
132.3
132.239
132.192
132.122
132.056
131.976
131.865
131.661
131.323
130.853
130.378
129.998
129.755
129.644
129.645
129.726
129.863
130.03
130.215
130.41
130.609
130.809
131.008
131.206
131.399
131.589
131.775
131.957
132.136
132.311
132.483
132.651
132.817
132.98
133.142
133.3
133.462
133.614
133.781
133.927
134.111
134.242
134.468
134.565
134.894
134.925
135.537
135.82
133.08
131.99
131.569
131.401
131.288
131.149
130.961
130.725
130.453
130.155
129.847
129.545
129.276
129.072
129.002
129.13
129.626
130.536
131.891
133.301
134.59
135.668
136.404
137.118
137.487
137.802
138.334
138.79
139.206
139.338
139.296
139.211
139.049
138.944
138.838
138.561
138.239
137.734
137.067
136.619
136.356
136.118
135.999
135.897
135.696
135.496
135.199
134.967
134.732
134.336
134.026
133.686
133.494
133.319
132.974
132.612
132.104
131.493
130.982
130.648
130.348
130.196
130.074
129.887
129.724
129.552
129.353
129.148
129.012
128.891
128.83
128.787
128.73
128.681
128.63
128.556
128.395
128.093
127.677
127.31
127.112
127.112
127.276
127.555
127.897
128.268
128.648
129.027
129.4
129.764
130.116
130.453
130.773
131.078
131.368
131.643
131.905
132.155
132.393
132.622
132.84
133.051
133.253
133.452
133.641
133.832
134.009
134.202
134.366
134.576
134.719
134.977
135.078
135.458
135.483
136.217
135.811
133.055
131.947
131.497
131.294
131.135
130.939
130.683
130.363
129.987
129.561
129.095
128.597
128.087
127.593
127.18
126.952
127.129
127.861
129.314
131.113
133.025
134.903
136.273
137.738
138.523
139.219
140.45
141.461
142.189
141.938
141.195
140.517
139.688
139.218
138.788
137.873
136.923
135.632
134.148
133.197
132.68
132.295
132.132
132.013
131.841
131.72
131.552
131.364
131.147
130.673
130.243
129.736
129.444
129.175
128.649
128.095
127.308
126.342
125.572
125.094
124.69
124.498
124.352
124.154
124.011
123.917
123.885
123.872
123.885
123.919
123.943
123.973
124.049
124.125
124.226
124.305
124.296
124.114
123.826
123.664
123.769
124.124
124.682
125.337
126.026
126.7
127.346
127.957
128.535
129.082
129.599
130.084
130.536
130.958
131.35
131.713
132.05
132.363
132.655
132.928
133.183
133.425
133.652
133.871
134.076
134.282
134.469
134.673
134.843
135.066
135.208
135.49
135.581
136.009
136.015
136.877
135.802
133.033
131.91
131.436
131.201
131.002
130.756
130.438
130.041
129.566
129.017
128.393
127.692
126.918
126.084
125.233
124.472
124.058
124.262
125.584
127.943
131.267
135.293
138.483
142.233
144.252
146.042
148.929
150.771
150.992
148.685
145.399
142.981
140.43
139.033
137.781
135.357
132.95
129.875
126.556
124.452
123.351
122.697
122.504
122.433
122.523
122.8
123.159
123.178
123.058
122.567
121.97
121.193
120.728
120.286
119.412
118.487
117.159
115.459
114.052
113.122
112.299
111.896
111.577
111.144
110.874
110.808
111.1
111.584
111.989
112.446
112.696
112.926
113.38
113.829
114.428
115.098
115.844
116.454
117.037
117.758
118.752
119.932
121.242
122.54
123.757
124.858
125.859
126.764
127.591
128.344
129.03
129.654
130.221
130.737
131.207
131.636
132.026
132.382
132.708
133.007
133.283
133.54
133.779
134.007
134.219
134.432
134.622
134.834
135.005
135.24
135.38
135.683
135.763
136.241
136.225
137.221
135.795
133.015
131.88
131.387
131.128
130.896
130.611
130.243
129.782
129.228
128.574
127.813
126.93
125.908
124.731
123.39
121.949
120.569
119.594
120.038
122.376
128.254
137.117
144.381
153.058
157.511
161.149
165.467
166.48
163.865
155.919
148.34
142.925
137.407
134.385
131.718
126.944
122.359
116.755
110.378
105.811
103.424
103.104
103.434
104.088
105.793
107.489
109.053
109.355
109.098
107.734
106.225
104.535
103.626
102.823
101.483
100.259
98.6453
96.4928
94.6726
93.481
92.494
92.0474
91.6929
91.2558
91.0979
91.3451
92.545
94.0838
95.2605
96.5038
97.1595
97.7416
98.8367
99.9075
101.331
102.982
104.981
106.936
108.992
111.142
113.451
115.736
117.967
119.985
121.755
123.277
124.608
125.769
126.79
127.689
128.483
129.188
129.815
130.367
130.855
131.292
131.684
132.039
132.363
132.66
132.934
133.191
133.429
133.66
133.875
134.094
134.29
134.513
134.69
134.944
135.089
135.426
135.504
136.039
136.007
137.138
135.789
133.002
131.858
131.352
131.076
130.822
130.509
130.104
129.598
128.986
128.256
127.394
126.374
125.162
123.713
121.963
119.899
117.504
115.058
113.998
115.992
126.894
142.617
155.35
169.269
175.73
180.035
181.292
178.412
169.164
154.451
141.34
132.736
124.886
120.766
116.973
109.948
102.437
92.7838
82.186
78.6379
81.6421
87.2342
90.0412
92.4052
95.616
97.7056
98.5664
98.0249
96.6507
93.4627
90.7221
87.8281
86.2764
84.8692
82.8189
81.3472
79.8242
77.8276
75.9387
74.5356
73.3032
72.7086
72.2035
71.4982
71.1382
71.3579
72.7826
74.8729
76.6015
78.5198
79.5612
80.564
82.4928
84.392
86.979
89.9569
94.0206
98.377
102.537
106.3
109.862
113.095
115.991
118.481
120.587
122.343
123.838
125.116
126.22
127.177
127.994
128.694
129.299
129.828
130.295
130.713
131.089
131.432
131.745
132.035
132.304
132.559
132.797
133.03
133.246
133.471
133.672
133.905
134.088
134.357
134.506
134.867
134.941
135.527
135.475
136.721
135.785
132.993
131.843
131.327
131.04
130.77
130.438
130.009
129.473
128.82
128.038
127.106
125.993
124.648
123.008
120.966
118.435
115.196
111.405
108.588
110.46
126.983
147.024
163.277
177.904
184.454
187.028
184.875
178.005
161.312
140.755
122.968
110.57
96.0003
86.4034
79.4549
73.4648
68.9799
69.8172
71.8257
71.2083
80.8051
89.3763
93.2731
95.5875
96.5193
96.2249
93.7667
91.1708
87.5555
80.7216
74.7123
68.3578
65.3695
62.8413
61.8061
63.0477
64.5605
64.1226
62.5167
60.8751
59.5353
58.8036
58.3453
57.787
57.7095
58.8904
62.111
65.6792
67.7465
69.8584
70.9263
71.9678
74.0058
76.0408
78.9219
82.5112
87.6219
93.1437
98.4762
103.182
107.487
111.279
114.604
117.371
119.67
121.557
123.141
124.492
125.639
126.596
127.399
128.081
128.668
129.181
129.635
130.042
130.41
130.747
131.056
131.345
131.614
131.87
132.111
132.348
132.571
132.803
133.011
133.254
133.447
133.732
133.887
134.269
134.34
134.963
134.896
136.227
135.783
132.986
131.833
131.311
131.015
130.735
130.389
129.942
129.383
128.701
127.88
126.897
125.713
124.269
122.485
120.217
117.31
113.378
108.376
103.854
106.476
127.182
148.271
165.525
179.186
185.62
185.602
177.051
164.667
136.142
108.501
74.4832
70.8439
70.8723
69.6753
68.405
67.4127
66.4444
65.9065
65.5872
71.3559
86.8871
96.328
101.464
101.615
96.676
91.2013
80.4443
73.1266
66.1523
61.1043
59.378
55.5421
52.5074
53.6419
53.0575
53.104
56.2271
57.6061
57.4879
57.0654
57.3318
58.782
60.1254
62.0002
63.9723
65.9082
69.0319
71.7726
73.4928
75.2368
76.1377
76.8422
77.7945
78.6312
79.7737
81.6528
85.3809
90.5048
96.0681
101.171
105.845
109.983
113.565
116.499
118.904
120.861
122.504
123.883
125.037
125.99
126.783
127.452
128.028
128.532
128.98
129.384
129.75
130.086
130.396
130.685
130.957
131.216
131.461
131.704
131.931
132.17
132.384
132.637
132.836
133.135
133.298
133.703
133.777
134.429
134.346
135.744
135.781
132.982
131.826
131.299
130.997
130.708
130.352
129.892
129.316
128.611
127.763
126.742
125.508
123.993
122.106
119.681
116.503
112.091
106.224
100.416
104.495
126.763
146.95
162.999
173.889
179.598
177.77
163.579
145.453
95.2213
68.3212
70.5245
68.8666
67.5249
65.6127
64.634
64.3295
64.2468
64.664
67.806
78.7981
93.0408
101.869
108.515
105.107
91.3828
78.8379
59.1416
54.3043
54.6127
54.0853
54.175
53.6483
55.2553
56.4707
55.9797
54.2022
54.024
56.7074
59.1986
62.0484
65.3853
68.121
68.3959
68.404
68.3825
68.3149
69.7537
71.7205
73.1181
74.7438
75.75
76.6414
77.6502
78.4796
79.5168
80.929
83.719
88.2241
93.7777
99.1388
104.082
108.488
112.35
115.509
118.03
120.065
121.773
123.17
124.327
125.288
126.086
126.758
127.334
127.839
128.288
128.693
129.062
129.401
129.715
130.01
130.287
130.553
130.805
131.055
131.291
131.538
131.761
132.023
132.229
132.539
132.71
133.132
133.213
133.89
133.804
135.255
135.78
132.98
131.822
131.291
130.983
130.688
130.322
129.852
129.261
128.539
127.666
126.611
125.331
123.749
121.764
119.184
115.739
110.854
104.137
96.9791
103.117
125.243
143.573
157.291
165.586
172.34
172.308
132.436
100.724
82.0122
66.0614
67.1258
64.6126
63.102
62.3273
61.4408
63.2204
64.8691
67.1577
73.3418
86.564
97.3519
104.496
113.956
105.17
66.9308
58.5261
53.5372
52.3976
52.3545
52.2333
52.6979
51.3933
56.1535
58.241
59.4889
59.3878
58.1178
59.3209
63.4418
67.0358
68.8796
67.4164
63.3284
60.0597
58.6616
56.6868
56.0329
57.4088
58.8846
61.3081
63.0537
66.0849
70.6241
73.7736
76.7667
79.2251
82.309
86.8055
92.4296
97.9239
103
107.524
111.492
114.768
117.372
119.461
121.186
122.586
123.732
124.689
125.491
126.167
126.745
127.25
127.7
128.106
128.476
128.817
129.134
129.432
129.714
129.984
130.241
130.496
130.737
130.991
131.219
131.488
131.699
132.017
132.187
132.619
132.69
133.387
133.28
134.767
135.78
132.978
131.818
131.284
130.973
130.673
130.303
129.825
129.225
128.491
127.601
126.525
125.215
123.593
121.549
118.884
115.297
110.174
103.059
95.2584
102.43
123.693
141.157
152.816
158.415
161.607
56.487
59.4644
64.1685
68.0484
76.0943
89.7558
98.9354
104.69
114.183
57.4983
60.4229
62.7872
63.6198
64.0576
67.3525
69.7574
70.8013
69.6649
56.3034
62.6485
67.3969
72.4393
76.4817
80.3381
85.0956
90.9087
96.5621
101.783
106.425
110.494
113.873
116.569
118.708
120.472
121.911
123.082
124.052
124.875
125.573
126.17
126.692
127.154
127.57
127.95
128.301
128.627
128.934
129.224
129.503
129.768
130.031
130.28
130.541
130.776
131.054
131.27
131.594
131.766
132.206
132.271
132.982
132.863
134.377
135.777
132.973
131.81
131.274
130.959
130.653
130.276
129.789
129.178
128.428
127.52
126.42
125.078
123.413
121.311
118.56
114.837
109.488
101.993
93.5374
101.386
121.751
138.029
147.627
150.244
147.381
55.9399
58.8787
63.7843
68.9087
78.6156
92.4354
100.064
104.682
112.637
56.8384
60.7189
64.7368
67.5501
69.9433
71.4891
72.5378
72.1605
69.1835
50.1628
52.8747
57.4562
63.884
69.8094
74.9416
80.4889
87.0808
93.2961
98.9386
103.922
108.273
111.898
114.795
117.071
118.949
120.511
121.816
122.866
123.749
124.503
125.153
125.716
126.212
126.657
127.061
127.434
127.78
128.105
128.413
128.708
128.989
129.267
129.53
129.804
130.052
130.341
130.566
130.9
131.077
131.527
131.596
132.325
132.212
133.757
135.775
132.968
131.802
131.261
130.94
130.627
130.239
129.739
129.111
128.34
127.403
126.265
124.872
123.136
120.935
118.04
114.082
108.336
100.149
90.4016
98.8893
117.658
131.943
138.43
137.746
131.547
55.2465
57.2093
62.2726
69.4572
82.0939
95.9833
101.394
105.014
112.788
56.0535
60.6829
65.7785
69.5817
72.9531
74.8148
75.083
73.7138
70.9156
50.0806
50.0623
50.8186
56.3623
62.9723
68.9923
75.1319
82.5874
89.4194
95.5308
100.87
105.479
109.294
112.387
114.832
116.844
118.53
119.965
121.179
122.205
123.044
123.752
124.363
124.899
125.38
125.818
126.221
126.594
126.945
127.276
127.593
127.895
128.193
128.473
128.766
129.03
129.335
129.575
129.926
130.117
130.586
130.668
131.426
131.317
132.909
135.773
132.963
131.794
131.247
130.918
130.595
130.195
129.68
129.033
128.237
127.268
126.088
124.64
122.83
120.531
117.5
113.332
107.259
98.5221
87.6647
95.3626
113.029
125.761
130.267
127.194
117.912
56.484
57.0664
60.8317
68.7191
84.4998
97.7467
101.663
104.821
113.256
55.4383
60.5171
66.3314
70.6094
74.1789
75.6302
74.9233
73.0928
70.2248
50.2909
50.3156
50.4716
51.0924
55.5854
61.3626
67.9076
76.0273
83.5445
89.9997
95.6917
100.644
104.777
108.191
110.971
113.268
115.199
116.855
118.285
119.53
120.61
121.479
122.211
122.846
123.41
123.919
124.385
124.815
125.218
125.596
125.958
126.3
126.637
126.954
127.282
127.578
127.916
128.188
128.573
128.793
129.296
129.4
130.19
130.087
131.736
135.771
132.957
131.783
131.228
130.889
130.554
130.138
129.603
128.93
128.101
127.091
125.857
124.339
122.439
120.021
116.827
112.439
106.06
96.8056
84.741
90.0413
106.869
119.067
122.918
118.885
106.724
58.6598
57.5497
57.3898
65.4464
87.6022
98.2987
100.472
103.454
112.808
54.7924
60.2984
66.5604
70.972
74.4439
75.5918
74.5895
72.9876
69.6758
50.4843
50.8143
51.2211
51.4697
52.1958
55.3478
61.189
68.7054
76.2937
82.786
88.697
93.6675
98.0543
101.83
105.026
107.743
110.042
112.022
113.743
115.252
116.582
117.753
118.789
119.635
120.355
120.99
121.562
122.084
122.569
123.022
123.453
123.86
124.259
124.635
125.019
125.369
125.761
126.082
126.518
126.781
127.335
127.471
128.317
128.225
129.979
135.768
132.95
131.771
131.21
130.862
130.514
130.083
129.529
128.831
127.971
126.92
125.633
124.047
122.058
119.529
116.191
111.649
105.167
95.8533
83.6914
81.9937
98.7932
112.844
120.33
119.009
105.51
59.6141
57.8782
56.3845
69.6948
92.4373
96.2443
95.6039
98.7887
107.634
53.3239
58.67
64.8339
69.416
73.3498
74.9669
74.2364
72.9739
69.8414
51.5194
52.6062
53.8426
54.2889
54.3666
54.5148
57.7713
64.0098
71.2186
77.3657
83.2192
88.1983
92.5759
96.4875
99.8904
102.849
105.372
107.549
109.443
111.106
112.575
113.884
115.055
116.096
117.032
117.866
118.571
119.19
119.752
120.269
120.759
121.221
121.673
122.101
122.538
122.94
123.385
123.756
124.247
124.557
125.171
125.341
126.266
126.187
128.077
135.766
132.945
131.764
131.197
130.844
130.488
130.046
129.478
128.764
127.882
126.803
125.479
123.845
121.796
119.192
115.762
111.143
104.664
95.5479
83.6882
79.2506
97.955
114.641
124.831
126.279
115.348
58.1378
56.7743
65.434
90.7174
101.177
95.4825
89.6094
92.4326
98.2431
52.902
57.6152
63.3637
67.9242
72.3109
74.5055
74.0242
72.8419
69.8285
53.155
54.8339
56.5711
57.0927
56.8488
55.8769
56.8716
61.3476
68.044
73.7801
79.4409
84.5011
88.7247
92.6241
96.0967
99.1582
101.799
104.077
106.062
107.809
109.356
110.738
111.983
113.109
114.136
115.075
115.928
116.7
117.366
117.957
118.505
119.019
119.52
119.995
120.48
120.929
121.423
121.84
122.383
122.735
123.411
123.613
124.617
124.543
126.561
135.765
132.942
131.759
131.189
130.831
130.469
130.019
129.441
128.715
127.817
126.717
125.367
123.701
121.611
118.958
115.475
110.822
104.396
95.5815
84.2987
75.2233
95.4298
115.223
129.247
135.603
127.167
60.3465
73.5995
91.3779
106.45
107.436
98.6901
87.4239
88.593
94.2624
52.0383
55.7411
60.722
65.2629
70.3814
73.6194
73.5786
72.4857
69.54
54.4777
56.2376
58.0077
58.6927
58.6075
57.4726
57.1128
59.6408
65.1635
70.373
75.6846
80.7317
84.9082
88.7076
92.2145
95.3675
98.1311
100.525
102.617
104.467
106.113
107.59
108.927
110.147
111.267
112.301
113.261
114.152
114.974
115.682
116.32
116.908
117.474
118.01
118.555
119.06
119.612
120.081
120.683
121.082
121.82
122.062
123.144
123.08
125.217
135.765
132.942
131.757
131.184
130.821
130.454
129.999
129.414
128.677
127.767
126.651
125.28
123.586
121.461
118.765
115.235
110.558
104.204
95.7416
85.1789
73.966
93.4042
115.275
132.18
143.076
141.259
87.6629
102.073
112.038
116.301
110.984
103.251
90.1588
86.1458
90.7796
52.0996
54.9227
59.2504
63.6014
69.0327
72.9934
73.2677
72.3059
69.4146
55.7562
57.326
58.6742
59.4735
59.589
58.3048
57.5639
59.0317
63.6193
68.5692
73.6399
78.6276
82.8216
86.5061
89.98
93.1404
95.9308
98.3563
100.477
102.354
104.03
105.538
106.904
108.157
109.314
110.389
111.392
112.334
113.217
114.025
114.754
115.402
116.015
116.591
117.174
117.715
118.305
118.808
119.449
119.877
120.658
120.924
122.059
122
124.217
135.764
132.94
131.754
131.179
130.815
130.445
129.986
129.395
128.653
127.734
126.607
125.223
123.512
121.364
118.644
115.088
110.401
104.103
95.8735
85.8946
74.502
90.5649
114.447
133.692
149.293
152.725
157.997
129.075
116.381
105.386
100.159
94.8567
95.3059
98.5438
102.544
109.03
116.272
119.478
118.165
111.39
105.872
97.0336
88.1787
89.2128
90.7379
92.4337
94.7913
96.9249
96.7506
95.4701
90.7109
85.3337
78.1734
72.3248
63.8536
56.6321
57.7696
61.7861
67.5126
72.2636
72.9563
72.111
69.2371
55.5747
50.5514
50.8236
51.3918
52.2024
53.5236
54.7004
55.6541
56.4471
57.3157
58.1308
58.8792
59.6928
60.0004
58.8299
58.0417
58.7245
62.2557
66.9157
71.6997
76.5703
80.7956
84.3638
87.7799
90.9372
93.7504
96.2161
98.3775
100.299
102.022
103.582
105.002
106.309
107.523
108.656
109.72
110.722
111.67
112.557
113.367
114.081
114.748
115.373
116.002
116.585
117.217
117.759
118.44
118.903
119.725
120.014
121.198
121.152
123.442
135.762
132.936
131.749
131.172
130.804
130.431
129.967
129.37
128.62
127.691
126.552
125.152
123.421
121.251
118.505
114.925
110.235
104.001
96.0088
86.7908
77.8256
86.0911
110.014
131.877
150.553
158.084
161.429
157.908
159.731
152.471
138.98
129.381
125.35
123.824
124.074
124.866
124.524
122.591
118.151
111.371
109.521
105.581
104.414
102.254
103.789
104.189
104.068
103.092
101.621
99.8182
95.7334
91.6234
86.0236
82.1057
77.7745
69.3898
61.6225
58.7727
64.4121
70.2083
72.0563
71.3939
68.6777
59.5969
51.291
50.2319
50.7602
51.9612
53.9034
55.7049
57.294
58.4752
58.8854
58.8541
58.9546
59.7327
60.2328
59.3159
58.7638
58.7213
60.2535
64.0441
68.1214
72.6106
76.7976
80.2719
83.5721
86.7377
89.6279
92.217
94.5111
96.5679
98.4305
100.133
101.698
103.145
104.494
105.76
106.951
108.077
109.145
110.157
111.088
111.915
112.685
113.402
114.116
114.779
115.487
116.099
116.848
117.373
118.258
118.597
119.845
119.839
122.219
135.761
132.933
131.743
131.163
130.792
130.413
129.942
129.337
128.576
127.634
126.477
125.054
123.295
121.089
118.303
114.683
109.984
103.848
96.2104
88.0462
81.2441
83.4864
102.254
123.997
146.05
155.842
161.54
165.074
166.653
162.933
153.772
145.932
141.408
137.264
134.963
132.833
127.98
121.83
114.523
111.903
118.584
122.81
127.51
127.641
127.001
122.209
116.757
109.276
104.14
99.4121
92.5131
87.2888
82.0492
79.0118
76.15
70.8265
64.8202
58.9462
61.7427
67.5965
70.4859
70.2013
68.0559
61.9922
53.8158
50.4723
50.6268
52.9875
55.6305
57.7279
59.5259
60.6198
60.7122
59.9234
58.8292
59.3821
60.1978
59.6932
59.3942
59.0181
58.8548
61.3726
64.7158
68.675
72.6475
76.0702
79.1827
82.2856
85.1954
87.8592
90.2618
92.4303
94.412
96.2459
97.9465
99.5297
101.012
102.405
103.722
104.97
106.158
107.289
108.361
109.339
110.233
111.055
111.865
112.615
113.406
114.096
114.922
115.516
116.473
116.869
118.19
118.217
120.704
135.76
132.93
131.738
131.154
130.778
130.393
129.915
129.3
128.527
127.569
126.392
124.945
123.155
120.912
118.085
114.423
109.712
103.658
96.3256
88.9991
84.0196
82.7046
92.9607
107.816
128.106
138.345
145.945
156.76
164.53
169.458
167.394
159.981
152.559
143.722
138.165
132.812
122.807
114.011
110.19
115.564
131.981
141.438
148.476
148.965
147.181
138.859
129.442
117.509
109.948
103.334
94.6424
88.5627
82.7132
79.4505
76.4176
71.2592
66.6108
61.0989
59.7293
63.6873
66.8782
67.2963
66.2562
63.1539
57.136
53.2358
51.9842
55.4472
58.1189
59.8265
61.1253
61.9524
62.1725
60.9912
58.6618
58.7861
59.8195
59.9037
59.9334
59.6172
57.9518
58.398
60.5207
63.5097
66.9463
70.2595
73.2768
76.198
79.085
81.8248
84.3672
86.7127
88.875
90.8884
92.7716
94.54
96.2067
97.7831
99.2799
100.704
102.063
103.361
104.605
105.772
106.839
107.818
108.771
109.656
110.574
111.381
112.322
113.02
114.088
114.571
116.005
116.089
118.727
135.759
132.927
131.731
131.143
130.761
130.369
129.881
129.255
128.466
127.489
126.289
124.811
122.984
120.697
117.821
114.106
109.367
103.357
96.3098
89.8103
86.338
88.3009
96.9845
107.154
122.071
130.024
136.881
149.311
158.299
163.578
160.025
149.694
139.624
127.523
119.232
111.872
103.585
103.328
110.618
129.833
154.108
163.768
168.295
167.672
164.392
153.348
141.605
127.275
118.389
110.821
101.674
95.8355
90.5274
87.6795
85.0451
79.9861
74.2476
67.2479
61.4759
60.4559
61.3699
61.7557
61.4781
60.4967
57.6211
56.2101
58.0046
61.5285
63.0875
63.6202
63.5209
63.3815
63.6431
62.3493
58.5024
57.7836
59.3561
60.2792
60.31
60.3451
57.6438