/*--------------------------------*- C++ -*----------------------------------*\
| =========                 |                                                 |
| \\      /  F ield         | OpenFOAM: The Open Source CFD Toolbox           |
|  \\    /   O peration     | Version:  v2006                                 |
|   \\  /    A nd           | Website:  www.openfoam.com                      |
|    \\/     M anipulation  |                                                 |
\*---------------------------------------------------------------------------*/
FoamFile
{
    version     2.0;
    format      ascii;
    class       volScalarField;
    location    "0.01";
    object      p;
}
// * * * * * * * * * * * * * * * * * * * * * * * * * * * * * * * * * * * * * //

dimensions      [0 2 -2 0 0 0 0];


internalField   nonuniform List<scalar> 
374400
(
17.7216
17.629
17.495
17.3529
17.2023
17.0444
16.8808
16.7125
16.5402
16.3647
16.1863
16.0054
15.8224
15.6376
15.4511
15.2631
15.074
14.8836
14.703
14.543
14.4145
14.318
14.2429
14.1891
14.1461
14.1138
14.0923
14.06
14.0169
13.9629
13.8874
13.8117
13.7577
13.7144
13.682
13.6603
13.6279
13.5845
13.5303
13.4544
13.3785
13.3242
13.2808
13.2482
13.2265
13.1939
13.1505
13.0961
13.0418
12.9983
12.9439
12.8895
12.846
12.8134
12.7916
12.759
12.7154
12.661
12.5848
12.5085
12.4541
12.4105
12.3779
12.3561
12.3234
12.2799
12.2254
12.1491
12.0729
12.0184
11.9748
11.9422
11.9204
11.8877
11.8442
11.7897
11.7134
11.6045
11.4519
11.2559
11.0272
10.7768
10.5047
10.2109
9.90637
9.60184
9.29735
8.99287
8.68839
8.3839
8.07939
7.77484
7.47027
7.16566
6.86101
6.55632
6.2516
5.94685
5.64206
5.33725
5.0324
4.72753
4.42264
4.11773
3.8128
3.50785
3.20288
2.8979
2.5929
2.28789
1.98287
1.67783
1.37279
1.06772
0.762661
0.45755
0.152539
17.722
17.6294
17.4954
17.3533
17.2027
17.0448
16.8812
16.7129
16.5407
16.3651
16.1867
16.0058
15.8228
15.638
15.4515
15.2635
15.0743
14.8839
14.7032
14.5432
14.4147
14.3182
14.243
14.1892
14.1462
14.1139
14.0924
14.06
14.0169
13.963
13.8873
13.8117
13.7576
13.7143
13.6819
13.6602
13.6278
13.5844
13.5302
13.4543
13.3783
13.324
13.2806
13.248
13.2263
13.1937
13.1502
13.0959
13.0415
12.998
12.9436
12.8892
12.8457
12.813
12.7913
12.7586
12.7151
12.6606
12.5844
12.5081
12.4537
12.4101
12.3774
12.3557
12.323
12.2794
12.225
12.1487
12.0724
12.0179
11.9744
11.9417
11.9199
11.8873
11.8437
11.7892
11.713
11.604
11.4515
11.2555
11.0268
10.7764
10.5044
10.2107
9.90615
9.60167
9.29721
8.99277
8.68832
8.38385
8.07936
7.77483
7.47027
7.16566
6.86102
6.55634
6.25162
5.94687
5.64208
5.33727
5.03242
4.72755
4.42266
4.11775
3.81281
3.50786
3.2029
2.89791
2.59291
2.2879
1.98288
1.67784
1.3728
1.06772
0.762665
0.457553
0.152541
17.7228
17.6301
17.4961
17.3541
17.2035
17.0456
16.882
16.7137
16.5415
16.3659
16.1875
16.0067
15.8237
15.6388
15.4523
15.2643
15.075
14.8846
14.7038
14.5436
14.4151
14.3185
14.2432
14.1894
14.1464
14.1141
14.0925
14.0602
14.017
13.963
13.8874
13.8116
13.7575
13.7142
13.6817
13.6601
13.6276
13.5842
13.53
13.454
13.3779
13.3236
13.2802
13.2476
13.2258
13.1932
13.1497
13.0953
13.0409
12.9974
12.943
12.8885
12.845
12.8123
12.7906
12.7579
12.7144
12.6599
12.5836
12.5073
12.4529
12.4093
12.3766
12.3548
12.3222
12.2786
12.2241
12.1478
12.0715
12.0171
11.9735
11.9408
11.919
11.8864
11.8428
11.7883
11.7121
11.6031
11.4506
11.2546
11.026
10.7757
10.5038
10.2101
9.90571
9.60132
9.29695
8.99258
8.68818
8.38376
8.0793
7.77481
7.47026
7.16568
6.86104
6.55637
6.25166
5.94691
5.64212
5.33731
5.03246
4.72759
4.42269
4.11778
3.81284
3.50789
3.20292
2.89793
2.59293
2.28792
1.98289
1.67785
1.37281
1.06773
0.762672
0.457557
0.152544
17.7239
17.6313
17.4973
17.3553
17.2047
17.0468
16.8832
16.715
16.5427
16.3672
16.1888
16.008
15.825
15.6401
15.4535
15.2655
15.0761
14.8855
14.7046
14.5443
14.4156
14.3189
14.2436
14.1898
14.1466
14.1143
14.0927
14.0604
14.0171
13.9631
13.8873
13.8115
13.7573
13.714
13.6815
13.6598
13.6272
13.5838
13.5295
13.4534
13.3773
13.3229
13.2794
13.2468
13.2251
13.1924
13.1489
13.0944
13.04
12.9964
12.9419
12.8874
12.8439
12.8112
12.7894
12.7567
12.7131
12.6586
12.5823
12.506
12.4515
12.4079
12.3752
12.3534
12.3207
12.2771
12.2226
12.1463
12.0701
12.0156
11.972
11.9393
11.9176
11.8849
11.8413
11.7869
11.7106
11.6017
11.4492
11.2533
11.0248
10.7746
10.5028
10.2093
9.90505
9.6008
9.29655
8.99229
8.68798
8.38363
8.07923
7.77477
7.47026
7.1657
6.86108
6.55642
6.25171
5.94697
5.64218
5.33736
5.03252
4.72764
4.42274
4.11782
3.81288
3.50792
3.20295
2.89796
2.59296
2.28794
1.98291
1.67787
1.37282
1.06774
0.762681
0.457562
0.152549
17.7255
17.6328
17.4988
17.3568
17.2063
17.0484
16.8849
16.7167
16.5445
16.369
16.1906
16.0098
15.8268
15.6419
15.4553
15.2672
15.0777
14.887
14.7059
14.5454
14.4166
14.3197
14.2443
14.1903
14.1472
14.1148
14.0932
14.0607
14.0174
13.9633
13.8874
13.8114
13.7572
13.7137
13.6812
13.6595
13.6269
13.5833
13.5289
13.4527
13.3765
13.322
13.2785
13.2458
13.224
13.1913
13.1477
13.0932
13.0387
12.995
12.9405
12.8859
12.8423
12.8096
12.7878
12.7551
12.7114
12.6569
12.5805
12.5041
12.4496
12.406
12.3733
12.3515
12.3188
12.2752
12.2206
12.1443
12.068
12.0135
11.9699
11.9373
11.9155
11.8828
11.8393
11.7848
11.7086
11.5997
11.4473
11.2514
11.0231
10.7731
10.5015
10.2082
9.90418
9.60013
9.29605
8.99193
8.68774
8.38348
8.07915
7.77475
7.47028
7.16575
6.86115
6.5565
6.2518
5.94705
5.64227
5.33745
5.03259
4.72771
4.42281
4.11788
3.81294
3.50797
3.20299
2.898
2.59299
2.28797
1.98294
1.67789
1.37284
1.06776
0.762694
0.457569
0.152556
17.7274
17.6347
17.5008
17.3588
17.2082
17.0505
16.887
16.7188
16.5467
16.3713
16.193
16.0122
15.8293
15.6444
15.4577
15.2695
15.0799
14.889
14.7077
14.5469
14.4178
14.3208
14.2451
14.1911
14.1478
14.1153
14.0937
14.0612
14.0178
13.9635
13.8874
13.8113
13.7569
13.7133
13.6807
13.6589
13.6262
13.5826
13.528
13.4516
13.3752
13.3206
13.277
13.2442
13.2224
13.1896
13.1459
13.0913
13.0367
12.993
12.9383
12.8837
12.84
12.8073
12.7854
12.7527
12.709
12.6543
12.5778
12.5014
12.4468
12.4032
12.3705
12.3487
12.3159
12.2723
12.2178
12.1414
12.0651
12.0106
11.967
11.9344
11.9126
11.8799
11.8364
11.7819
11.7057
11.5969
11.4446
11.2489
11.0208
10.771
10.4998
10.2068
9.90308
9.5993
9.29544
8.9915
8.68747
8.38333
8.07908
7.77475
7.47033
7.16582
6.86125
6.55661
6.25191
5.94717
5.64238
5.33755
5.0327
4.72781
4.42289
4.11796
3.81301
3.50804
3.20305
2.89805
2.59304
2.28801
1.98297
1.67792
1.37287
1.06778
0.762711
0.457577
0.152567
17.7297
17.6371
17.5031
17.3611
17.2106
17.0529
16.8895
16.7214
16.5494
16.3741
16.196
16.0153
15.8324
15.6476
15.461
15.2728
15.0831
14.892
14.7103
14.5492
14.4197
14.3224
14.2466
14.1923
14.1489
14.1163
14.0946
14.062
14.0184
13.9639
13.8876
13.8112
13.7566
13.7129
13.6801
13.6583
13.6255
13.5817
13.527
13.4503
13.3736
13.3189
13.2751
13.2422
13.2203
13.1875
13.1437
13.0889
13.0341
12.9903
12.9355
12.8808
12.837
12.8041
12.7823
12.7494
12.7057
12.6509
12.5744
12.4978
12.4432
12.3995
12.3668
12.3449
12.3122
12.2685
12.2139
12.1376
12.0612
12.0068
11.9632
11.9305
11.9088
11.8761
11.8326
11.7782
11.702
11.5932
11.4411
11.2456
11.0178
10.7685
10.4976
10.2052
9.9018
9.59835
9.29478
8.99107
8.6872
8.3832
8.07906
7.77479
7.47042
7.16595
6.86139
6.55676
6.25207
5.94732
5.64253
5.33769
5.03282
4.72792
4.423
4.11805
3.81309
3.50811
3.20312
2.89811
2.59309
2.28805
1.98302
1.67796
1.3729
1.06781
0.762734
0.457589
0.152585
17.7324
17.6397
17.5058
17.3638
17.2134
17.0558
16.8925
16.7245
16.5527
16.3776
16.1996
16.0192
15.8365
15.6518
15.4653
15.2771
15.0873
14.896
14.7139
14.5523
14.4224
14.3247
14.2485
14.194
14.1504
14.1176
14.0958
14.063
14.0192
13.9645
13.8877
13.8109
13.756
13.7121
13.6792
13.6572
13.6243
13.5803
13.5253
13.4482
13.3712
13.3162
13.2722
13.2392
13.2172
13.1843
13.1402
13.0852
13.0303
12.9863
12.9314
12.8764
12.8325
12.7996
12.7777
12.7448
12.7009
12.6461
12.5693
12.4927
12.438
12.3943
12.3615
12.3396
12.3069
12.2632
12.2086
12.1322
12.0559
12.0014
11.9579
11.9252
11.9035
11.8709
11.8274
11.773
11.6969
11.5883
11.4364
11.2414
11.0141
10.7653
10.4951
10.2032
9.90033
9.59732
9.29409
8.99064
8.68698
8.38313
8.07909
7.7749
7.47058
7.16614
6.8616
6.55697
6.25228
5.94752
5.64271
5.33787
5.03298
4.72807
4.42313
4.11817
3.81319
3.5082
3.20319
2.89818
2.59315
2.28811
1.98306
1.678
1.37294
1.06784
0.762762
0.457603
0.15261
17.7354
17.6427
17.5088
17.3669
17.2165
17.059
16.8959
16.7281
16.5566
16.3817
16.204
16.0239
15.8416
15.6572
15.471
15.283
15.0933
14.9018
14.7193
14.5571
14.4266
14.3283
14.2516
14.1968
14.1529
14.1199
14.0979
14.0649
14.0208
13.9656
13.8882
13.8109
13.7556
13.7113
13.6782
13.656
13.6228
13.5785
13.5231
13.4455
13.368
13.3127
13.2684
13.2352
13.2131
13.1799
13.1357
13.0804
13.0252
12.981
12.9258
12.8707
12.8266
12.7936
12.7716
12.7386
12.6946
12.6396
12.5627
12.4859
12.4311
12.3873
12.3545
12.3326
12.2999
12.2562
12.2016
12.1252
12.0489
11.9944
11.9509
11.9183
11.8966
11.864
11.8206
11.7663
11.6904
11.582
11.4305
11.236
11.0094
10.7615
10.492
10.2009
9.89877
9.59628
9.29345
8.99031
8.68687
8.38316
8.07924
7.77512
7.47083
7.16641
6.86188
6.55725
6.25254
5.94777
5.64295
5.33808
5.03318
4.72824
4.42328
4.1183
3.81331
3.5083
3.20328
2.89825
2.59322
2.28817
1.98312
1.67805
1.37298
1.06788
0.762798
0.457622
0.152649
17.7386
17.6459
17.512
17.3701
17.2199
17.0625
16.8996
16.7321
16.5608
16.3863
16.2091
16.0295
15.8477
15.6639
15.4782
15.2907
15.1012
14.9098
14.727
14.564
14.4326
14.3335
14.2561
14.2007
14.1563
14.123
14.1008
14.0674
14.0228
13.9669
13.8887
13.8104
13.7546
13.7099
13.6763
13.654
13.6204
13.5757
13.5197
13.4414
13.3632
13.3074
13.2628
13.2293
13.2071
13.1736
13.129
13.0733
13.0177
12.9733
12.9178
12.8624
12.8181
12.785
12.7629
12.7297
12.6856
12.6304
12.5533
12.4764
12.4216
12.3778
12.3449
12.323
12.2903
12.2465
12.192
12.1156
12.0394
11.985
11.9416
11.909
11.8873
11.8548
11.8115
11.7574
11.6817
11.5737
11.4228
11.2292
11.0037
10.757
10.4887
10.1986
9.89723
9.59535
9.29297
8.99014
8.68691
8.38336
8.07953
7.77546
7.4712
7.16679
6.86225
6.5576
6.25288
5.94808
5.64323
5.33833
5.0334
4.72845
4.42346
4.11846
3.81345
3.50842
3.20339
2.89834
2.5933
2.28824
1.98318
1.6781
1.37304
1.06792
0.762843
0.457646
0.152704
17.7418
17.6491
17.5151
17.3733
17.2231
17.0659
16.9032
16.736
16.5651
16.3911
16.2144
16.0355
15.8545
15.6715
15.4868
15.3002
15.1115
14.9206
14.7377
14.5741
14.4415
14.3413
14.2628
14.2066
14.1615
14.1277
14.1051
14.0711
14.0257
13.969
13.8894
13.8099
13.7532
13.7079
13.6739
13.6513
13.6173
13.5719
13.5153
13.436
13.357
13.3006
13.2556
13.2218
13.1993
13.1655
13.1205
13.0643
13.0083
12.9635
12.9076
12.8518
12.8073
12.774
12.7518
12.7185
12.6742
12.6189
12.5417
12.4647
12.4098
12.366
12.3332
12.3113
12.2785
12.2348
12.1803
12.1041
12.0279
11.9736
11.9302
11.8977
11.8761
11.8436
11.8004
11.7465
11.6711
11.5636
11.4135
11.2212
10.9973
10.7521
10.4853
10.1964
9.89593
9.59467
9.29273
8.9902
8.68717
8.38373
8.07997
7.77593
7.47168
7.16726
6.86269
6.55802
6.25326
5.94843
5.64355
5.33862
5.03366
4.72867
4.42366
4.11864
3.8136
3.50855
3.2035
2.89844
2.59338
2.28831
1.98325
1.67816
1.3731
1.06797
0.762898
0.457678
0.152782
17.7449
17.6521
17.5181
17.3763
17.2262
17.0692
16.9067
16.7398
16.5693
16.3959
16.2199
16.0417
15.8617
15.6799
15.4965
15.3114
15.1243
14.9346
14.7523
14.5882
14.4543
14.3523
14.2722
14.2146
14.1684
14.1337
14.1105
14.0756
14.029
13.9706
13.8889
13.8077
13.75
13.7039
13.6694
13.6464
13.6119
13.5659
13.5086
13.4284
13.3484
13.2913
13.2457
13.2115
13.1887
13.1545
13.1089
13.052
12.9953
12.9501
12.8937
12.8375
12.7927
12.7592
12.737
12.7036
12.6591
12.6038
12.5266
12.4497
12.3949
12.3512
12.3184
12.2966
12.2639
12.2203
12.1659
12.0897
12.0136
11.9594
11.916
11.8836
11.862
11.8297
11.7866
11.7328
11.6578
11.551
11.4023
11.2119
10.9903
10.7472
10.482
10.1945
9.89496
9.59434
9.29281
8.99053
8.68765
8.3843
8.08057
7.77653
7.47227
7.16781
6.86322
6.5585
6.2537
5.94883
5.64391
5.33894
5.03395
4.72892
4.42388
4.11883
3.81377
3.5087
3.20363
2.89855
2.59347
2.28839
1.98332
1.67823
1.37316
1.06803
0.76296
0.457717
0.152884
17.7478
17.6549
17.5208
17.3791
17.2291
17.0722
16.9099
16.7434
16.5733
16.4004
16.2251
16.0479
15.869
15.6887
15.507
15.3241
15.1395
14.9525
14.7723
14.6087
14.4733
14.3689
14.286
14.2261
14.1777
14.1414
14.1171
14.0805
14.0316
13.9706
13.8856
13.8022
13.7435
13.6967
13.6618
13.6386
13.6038
13.5575
13.4999
13.4193
13.3387
13.2808
13.2343
13.1994
13.1761
13.1412
13.0946
13.0366
12.9789
12.933
12.8759
12.8193
12.7742
12.7406
12.7182
12.6848
12.6404
12.5852
12.5086
12.4324
12.378
12.3346
12.302
12.2802
12.2476
12.2042
12.1498
12.0736
11.9973
11.9428
11.8993
11.8668
11.8451
11.8127
11.7697
11.716
11.6414
11.5355
11.3888
11.2013
10.9827
10.7422
10.4791
10.193
9.89439
9.59436
9.29319
8.99112
8.68834
8.38503
8.0813
7.77724
7.47294
7.16844
6.86379
6.55903
6.25418
5.94926
5.64429
5.33928
5.03424
4.72919
4.42411
4.11903
3.81394
3.50885
3.20375
2.89865
2.59356
2.28847
1.98339
1.67829
1.37322
1.06808
0.763025
0.457754
0.153012
17.7504
17.6573
17.5231
17.3814
17.2314
17.0747
16.9126
16.7464
16.5767
16.4044
16.2298
16.0534
15.8756
15.6968
15.5172
15.3368
15.1556
14.9728
14.7968
14.6358
14.4996
14.3919
14.3043
14.24
14.1877
14.1483
14.1219
14.0819
14.0291
13.964
13.8749
13.7899
13.731
13.6844
13.6497
13.6268
13.5926
13.5473
13.4911
13.4123
13.3317
13.2728
13.2249
13.1886
13.1642
13.1277
13.0791
13.0186
12.9592
12.9122
12.8541
12.797
12.7517
12.718
12.6957
12.6623
12.6183
12.5639
12.4888
12.4144
12.3611
12.3183
12.2859
12.2643
12.2319
12.1885
12.134
12.0571
11.9797
11.9244
11.8802
11.8473
11.8254
11.7926
11.7493
11.6955
11.6213
11.5169
11.3732
11.1899
10.9753
10.7377
10.4766
10.1919
9.89418
9.59466
9.29378
8.99185
8.68914
8.38583
8.08208
7.77798
7.47361
7.16906
6.86435
6.55953
6.25463
5.94966
5.64464
5.33959
5.03451
4.72942
4.42431
4.1192
3.81409
3.50897
3.20385
2.89874
2.59363
2.28852
1.98344
1.67832
1.37326
1.06811
0.763076
0.457774
0.153154
17.7524
17.6592
17.5248
17.3831
17.2332
17.0765
16.9147
16.7487
16.5793
16.4074
16.2333
16.0577
15.8809
15.7033
15.5254
15.3475
15.1698
14.9918
14.822
14.6667
14.5321
14.4214
14.3271
14.2556
14.1967
14.1521
14.122
14.077
14.0191
13.9496
13.8572
13.7723
13.7146
13.6696
13.6364
13.6146
13.5825
13.5403
13.488
13.4146
13.3367
13.2767
13.2262
13.1866
13.1598
13.1197
13.0671
13.0027
12.9411
12.8932
12.8343
12.777
12.7319
12.6982
12.6758
12.6425
12.599
12.5458
12.4739
12.403
12.3518
12.3101
12.2783
12.2568
12.2245
12.1807
12.1251
12.046
11.9658
11.9083
11.8624
11.8284
11.8058
11.7721
11.7279
11.6737
11.5998
11.4975
11.3578
11.1794
10.9687
10.7339
10.4747
10.1911
9.89412
9.59502
9.29435
8.99254
8.68986
8.38654
8.08275
7.77859
7.47418
7.16956
6.8648
6.55993
6.25498
5.94997
5.64491
5.33982
5.03471
4.72959
4.42446
4.11932
3.81418
3.50905
3.20392
2.89879
2.59367
2.28855
1.98346
1.67834
1.37328
1.06811
0.763106
0.457766
0.153288
17.7538
17.6605
17.526
17.3842
17.2344
17.0778
16.9161
16.7502
16.5811
16.4095
16.2358
16.0607
15.8846
15.708
15.5314
15.3553
15.1803
15.0066
14.843
14.695
14.5655
14.4548
14.3548
14.2743
14.2063
14.1543
14.1194
14.0674
14.0035
13.9307
13.837
13.7532
13.6961
13.6516
13.6193
13.5987
13.5691
13.5315
13.4857
13.4216
13.3506
13.2901
13.2355
13.1916
13.1614
13.1159
13.0584
12.9907
12.9279
12.8797
12.8208
12.7634
12.718
12.6836
12.6609
12.6273
12.584
12.5326
12.4653
12.3997
12.3513
12.3112
12.2797
12.2584
12.2258
12.1809
12.1233
12.0404
11.9559
11.8951
11.8466
11.8109
11.7873
11.7522
11.707
11.6526
11.5798
11.4804
11.3451
11.1712
10.9638
10.7311
10.4732
10.1905
9.89406
9.59527
9.29477
8.99303
8.69037
8.38705
8.08322
7.77903
7.47458
7.16992
6.86511
6.5602
6.25522
5.95017
5.64508
5.33997
5.03484
4.72969
4.42454
4.11939
3.81424
3.50909
3.20395
2.89881
2.59368
2.28855
1.98346
1.67833
1.37328
1.0681
0.763118
0.457738
0.153392
17.7548
17.6613
17.5267
17.385
17.2352
17.0787
16.917
16.7513
16.5823
16.4109
16.2375
16.0627
15.8871
15.7112
15.5355
15.3607
15.1877
15.0171
14.8586
14.7175
14.5945
14.4881
14.3871
14.2994
14.221
14.1562
14.1122
14.0515
13.983
13.911
13.8182
13.7348
13.6793
13.6382
13.6079
13.5882
13.5605
13.5246
13.4809
13.4224
13.3576
13.2987
13.2418
13.193
13.159
13.1088
13.0482
12.9809
12.9178
12.8695
12.8119
12.756
12.7123
12.6781
12.6541
12.6172
12.5725
12.5227
12.4612
12.4018
12.357
12.3185
12.2872
12.2654
12.2317
12.1849
12.1245
12.0383
11.95
11.8856
11.8337
11.7955
11.7704
11.7335
11.6877
11.6339
11.5631
11.467
11.3357
11.165
10.96
10.7289
10.4719
10.1899
9.89392
9.59537
9.29501
8.99333
8.6907
8.38737
8.08353
7.77932
7.47483
7.17014
6.86531
6.56038
6.25536
5.9503
5.64519
5.34006
5.03491
4.72975
4.42459
4.11943
3.81427
3.50911
3.20396
2.89881
2.59368
2.28855
1.98346
1.67831
1.37328
1.06808
0.763122
0.457705
0.15347
17.7555
17.6619
17.5272
17.3855
17.2358
17.0793
16.9177
16.752
16.5832
16.4119
16.2387
16.0642
15.8889
15.7134
15.5383
15.3645
15.1928
15.0245
14.8697
14.7341
14.6176
14.5185
14.4219
14.3313
14.2432
14.1597
14.0967
14.0183
13.9544
13.8982
13.8059
13.7335
13.6717
13.6255
13.5929
13.5723
13.5439
13.5105
13.4712
13.419
13.3591
13.303
13.2436
13.1885
13.1497
13.0981
13.0388
12.9745
12.9132
12.867
12.8081
12.7491
12.7054
12.6673
12.6432
12.6018
12.5585
12.5135
12.4589
12.4054
12.3642
12.3274
12.2951
12.272
12.2362
12.1879
12.1262
12.0377
11.9463
11.8782
11.8221
11.7799
11.7525
11.7134
11.668
11.6162
11.5487
11.4563
11.3284
11.1604
10.9571
10.7271
10.4709
10.1894
9.89373
9.59539
9.29513
8.99351
8.6909
8.38758
8.08373
7.7795
7.47499
7.17029
6.86544
6.56048
6.25546
5.95037
5.64526
5.34011
5.03496
4.72979
4.42462
4.11945
3.81428
3.50911
3.20396
2.8988
2.59368
2.28853
1.98345
1.6783
1.37326
1.06805
0.76312
0.457675
0.153525
17.756
17.6623
17.5276
17.386
17.2362
17.0797
16.9182
16.7526
16.5838
16.4126
16.2396
16.0653
15.8903
15.7152
15.5406
15.3675
15.1969
15.0303
14.8784
14.7474
14.6371
14.5469
14.4602
14.3718
14.2709
14.1419
14.0469
13.9672
13.8961
13.9024
13.8013
13.7263
13.6688
13.6228
13.589
13.5671
13.5363
13.502
13.4636
13.4153
13.3599
13.3105
13.2478
13.1835
13.1375
13.0872
13.0299
12.978
12.9119
12.8645
12.8057
12.7429
12.6937
12.6533
12.6268
12.589
12.5489
12.5069
12.4571
12.4093
12.373
12.3397
12.3079
12.2827
12.2443
12.1931
12.1289
12.0382
11.9442
11.8729
11.8118
11.763
11.7299
11.6893
11.647
11.599
11.5356
11.4472
11.3224
11.1566
10.9547
10.7256
10.47
10.1889
9.89352
9.59535
9.29519
8.99363
8.69104
8.38772
8.08386
7.77963
7.47511
7.17039
6.86553
6.56056
6.25552
5.95043
5.6453
5.34015
5.03498
4.72981
4.42463
4.11946
3.81428
3.50911
3.20396
2.8988
2.59367
2.28852
1.98343
1.67828
1.37325
1.06803
0.763114
0.457648
0.153568
17.7564
17.6627
17.5279
17.3863
17.2365
17.0801
16.9185
16.753
16.5843
16.4132
16.2403
16.0661
15.8913
15.7165
15.5422
15.3696
15.1998
15.0344
14.8847
14.757
14.6518
14.57
14.4959
14.4232
14.3409
14.1179
13.8178
13.9663
13.8721
13.8972
13.8009
13.7275
13.6679
13.6166
13.5672
13.5422
13.5162
13.488
13.455
13.4118
13.363
13.3182
13.2649
13.1896
13.0931
13.0994
13.0235
12.9777
12.9125
12.8659
12.8095
12.7364
12.6904
12.6344
12.606
12.5742
12.5403
12.5026
12.4565
12.4136
12.3836
12.3579
12.33
12.2939
12.2483
12.1946
12.1289
12.0374
11.9428
11.8702
11.8062
11.7478
11.7014
11.6636
11.6274
11.5843
11.5249
11.4401
11.3179
11.1537
10.9529
10.7243
10.4692
10.1885
9.89331
9.59528
9.29521
8.99368
8.69112
8.3878
8.08395
7.77971
7.47518
7.17045
6.86558
6.56061
6.25556
5.95046
5.64533
5.34017
5.035
4.72982
4.42464
4.11946
3.81428
3.50911
3.20395
2.89879
2.59366
2.28851
1.98342
1.67826
1.37324
1.06802
0.763107
0.457627
0.153596
17.7567
17.6629
17.5281
17.3865
17.2367
17.0803
16.9188
16.7533
16.5846
16.4136
16.2407
16.0667
15.892
15.7173
15.5433
15.371
15.2017
15.0371
14.8887
14.763
14.6611
14.5848
14.5196
14.4618
14.4085
14.2748
13.5273
13.5105
13.4819
13.4497
13.4094
13.3646
13.3252
13.2842
13.2376
12.5784
12.562
12.5341
12.4996
12.4562
12.4169
12.3918
12.3739
12.3629
11.6482
11.642
11.6136
11.5744
11.518
11.4354
11.315
11.1518
10.9516
10.7235
10.4687
10.1882
9.89315
9.59521
9.2952
8.99371
8.69116
8.38785
8.084
7.77975
7.47523
7.17049
6.86562
6.56064
6.25559
5.95048
5.64534
5.34018
5.03501
4.72983
4.42464
4.11946
3.81428
3.50911
3.20395
2.89878
2.59365
2.2885
1.98341
1.67825
1.37323
1.06801
0.763101
0.457614
0.153612
17.757
17.6632
17.5285
17.3868
17.237
17.0806
16.9191
16.7537
16.5851
16.4141
16.2414
16.0675
15.893
15.7186
15.5449
15.3731
15.2045
15.041
14.8945
14.7718
14.6748
14.6069
14.5559
14.5228
14.4994
14.4666
13.4918
13.484
13.4664
13.4408
13.4058
13.3674
13.3371
13.3114
13.2928
12.5533
12.5448
12.5244
12.4949
12.4554
12.422
12.4048
12.3957
12.3913
11.6307
11.6186
11.5951
11.5603
11.5079
11.4288
11.3106
11.1489
10.9496
10.7221
10.4678
10.1876
9.89287
9.59509
9.29517
8.99373
8.69121
8.38792
8.08407
7.77982
7.47529
7.17055
6.86567
6.56068
6.25562
5.95051
5.64537
5.3402
5.03502
4.72983
4.42465
4.11946
3.81428
3.5091
3.20394
2.89877
2.59364
2.28849
1.9834
1.67824
1.37322
1.06799
0.763089
0.457596
0.15363
17.7574
17.6637
17.5289
17.3872
17.2374
17.081
16.9196
16.7542
16.5857
16.4149
16.2423
16.0685
15.8943
15.7202
15.547
15.3758
15.2081
15.046
14.9017
14.7826
14.6922
14.6353
14.6016
14.591
14.591
14.5868
13.4734
13.4658
13.452
13.4301
13.4015
13.3708
13.3509
13.3372
13.3301
12.5346
12.5291
12.5139
12.4897
12.4556
12.43
12.4211
12.4183
12.4161
11.5928
11.5883
11.5725
11.5444
11.4967
11.4213
11.3056
11.1454
10.947
10.7203
10.4665
10.1868
9.89239
9.59484
9.29506
8.9937
8.69123
8.38796
8.08412
7.77987
7.47534
7.1706
6.86571
6.56071
6.25565
5.95053
5.64538
5.34021
5.03503
4.72984
4.42464
4.11945
3.81427
3.50909
3.20392
2.89875
2.59362
2.28846
1.98338
1.67822
1.3732
1.06796
0.763069
0.457569
0.153653
17.758
17.6642
17.5294
17.3876
17.2379
17.0816
16.9202
16.7549
16.5865
16.4157
16.2433
16.0698
15.8959
15.7222
15.5495
15.379
15.2123
15.0517
14.9097
14.7945
14.7106
14.665
14.6476
14.654
14.6682
14.6722
13.4508
13.4463
13.4358
13.4179
13.3964
13.374
13.3638
13.3595
13.3574
12.5215
12.5169
12.505
12.485
12.4571
12.4395
12.4363
12.4357
12.4331
11.5705
11.5668
11.554
11.5293
11.486
11.4141
11.3006
11.1414
10.9438
10.7178
10.4647
10.1856
9.89165
9.5944
9.29482
8.99358
8.69118
8.38795
8.08414
7.7799
7.47537
7.17063
6.86574
6.56074
6.25567
5.95054
5.64539
5.34021
5.03502
4.72983
4.42463
4.11943
3.81425
3.50906
3.20389
2.89872
2.59359
2.28843
1.98334
1.67818
1.37316
1.06793
0.76304
0.457531
0.153681
17.7587
17.6649
17.53
17.3883
17.2386
17.0823
16.9209
16.7557
16.5874
16.4169
16.2447
16.0715
15.898
15.7248
15.5528
15.3832
15.2177
15.0586
14.9188
14.8067
14.7277
14.6901
14.683
14.6984
14.7195
14.7255
13.4342
13.4309
13.4215
13.4021
13.3894
13.3767
13.3753
13.379
13.3806
12.5165
12.5119
12.5013
12.4837
12.4594
12.445
12.4427
12.4409
12.4372
11.5559
11.5523
11.5411
11.5188
11.4784
11.4082
11.2959
11.1369
10.9397
10.7144
10.462
10.1837
9.89033
9.59352
9.29424
8.99322
8.69096
8.38782
8.08405
7.77985
7.47534
7.1706
6.86572
6.56072
6.25565
5.95052
5.64536
5.34018
5.03499
4.72979
4.42459
4.11939
3.8142
3.50901
3.20384
2.89867
2.59353
2.28838
1.98329
1.67812
1.37311
1.06787
0.762995
0.457465
0.153724
17.7593
17.6655
17.5306
17.3888
17.2392
17.0829
16.9216
16.7565
16.5884
16.418
16.246
16.0731
15.8999
15.7272
15.5558
15.387
15.2223
15.0641
14.9248
14.813
14.7319
14.6909
14.6781
14.6876
14.7057
14.7123
13.4404
13.4374
13.4251
13.4059
13.3902
13.3835
13.3864
13.3958
13.4038
12.5234
12.5189
12.5072
12.4874
12.4586
12.4372
12.4285
12.4223
12.4174
11.5625
11.5576
11.5448
11.5215
11.4794
11.4079
11.2938
11.134
10.9363
10.7113
10.4594
10.1817
9.88886
9.59246
9.29348
8.99268
8.69057
8.38754
8.08385
7.77969
7.47521
7.1705
6.86563
6.56064
6.25557
5.95045
5.6453
5.34012
5.03493
4.72973
4.42453
4.11933
3.81414
3.50895
3.20378
2.8986
2.59347
2.28831
1.98322
1.67805
1.37305
1.0678
0.762943
0.457377
0.153777
17.7598
17.6659
17.531
17.3892
17.2396
17.0833
16.9221
16.757
16.589
16.4187
16.2469
16.0741
15.9012
15.7288
15.5578
15.3895
15.2253
15.0674
14.9277
14.815
14.7316
14.6818
14.6574
14.654
14.6613
14.6625
13.458
13.4553
13.4412
13.4177
13.3981
13.3897
13.3899
13.3988
13.4121
12.538
12.5326
12.5178
12.4935
12.4572
12.4251
12.4077
12.3955
12.3887
11.5781
11.5713
11.5553
11.5289
11.4839
11.4094
11.2933
11.1325
10.9344
10.7094
10.4577
10.1803
9.88787
9.59172
9.29293
8.99226
8.69026
8.3873
8.08366
7.77954
7.47509
7.1704
6.86553
6.56056
6.2555
5.95038
5.64523
5.34006
5.03487
4.72967
4.42447
4.11927
3.81408
3.50889
3.20372
2.89855
2.59341
2.28825
1.98317
1.678
1.373
1.06774
0.762903
0.457306
0.153818
17.7601
17.6662
17.5312
17.3895
17.2399
17.0836
16.9225
16.7574
16.5894
16.4192
16.2475
16.0749
15.9022
15.73
15.5593
15.3913
15.2274
15.0696
14.9295
14.8152
14.7285
14.67
14.6305
14.6072
14.5928
14.5698
13.4967
13.4842
13.4613
13.4328
13.4082
13.3939
13.3872
13.3877
13.3968
12.5598
12.5505
12.5305
12.5006
12.4563
12.4133
12.386
12.3662
12.3546
11.5995
11.5892
11.5682
11.5374
11.4888
11.4115
11.2932
11.1314
10.933
10.708
10.4565
10.1794
9.88713
9.59116
9.2925
8.99193
8.69
8.38709
8.0835
7.77941
7.47498
7.1703
6.86545
6.56048
6.25543
5.95032
5.64517
5.34
5.03481
4.72962
4.42442
4.11922
3.81403
3.50885
3.20368
2.8985
2.59337
2.28821
1.98313
1.67795
1.37296
1.06769
0.76287
0.457248
0.15385
17.7604
17.6664
17.5314
17.3897
17.2401
17.0839
16.9227
16.7577
16.5898
16.4196
16.248
16.0755
15.9029
15.7309
15.5604
15.3926
15.2289
15.0712
14.9304
14.8147
14.7254
14.6602
14.6074
14.561
14.5196
14.3939
13.4932
13.5017
13.4786
13.449
13.4176
13.3938
13.379
13.3711
13.385
12.5767
12.5677
12.5423
12.507
12.4563
12.4049
12.3686
12.3381
12.317
11.6307
11.6095
11.581
11.545
11.4931
11.4133
11.2933
11.1307
10.9321
10.7071
10.4558
10.1788
9.88666
9.5908
9.29221
8.9917
8.68982
8.38695
8.08338
7.77931
7.4749
7.17023
6.86539
6.56042
6.25538
5.95027
5.64512
5.33995
5.03477
4.72958
4.42438
4.11919
3.814
3.50881
3.20364
2.89847
2.59333
2.28817
1.98309
1.67792
1.37293
1.06766
0.762843
0.457204
0.153872
17.7605
17.6665
17.5316
17.3899
17.2402
17.084
16.9229
16.7579
16.59
16.4199
16.2483
16.0759
15.9033
15.7314
15.5611
15.3934
15.2299
15.0721
14.931
14.8142
14.7231
14.6539
14.5926
14.5325
14.4621
14.2355
13.9365
14.0494
13.9886
13.9732
13.8936
13.8053
13.7333
13.6686
13.6051
13.5544
13.5232
13.4939
13.4611
13.4238
13.3924
13.3701
13.348
13.3126
13.2524
13.1927
13.1191
13.0327
12.9549
12.896
12.8241
12.7546
12.6991
12.6549
12.6227
12.5859
12.5512
12.5111
12.4564
12.3997
12.3574
12.3183
12.2812
12.2265
12.1881
12.124
12.0538
11.9621
11.8728
11.8071
11.7513
11.7052
11.6603
11.6245
11.5898
11.5501
11.496
11.4145
11.2934
11.1303
10.9316
10.7066
10.4554
10.1784
9.88639
9.59058
9.29205
8.99157
8.68971
8.38686
8.08331
7.77925
7.47484
7.17018
6.86535
6.56039
6.25534
5.95024
5.64509
5.33992
5.03474
4.72955
4.42435
4.11916
3.81397
3.50878
3.20362
2.89844
2.59331
2.28815
1.98307
1.6779
1.37291
1.06764
0.762824
0.457176
0.153883
17.7607
17.6667
17.5318
17.3901
17.2404
17.0842
16.9231
16.7582
16.5903
16.4202
16.2487
16.0764
15.904
15.7322
15.5621
15.3946
15.2312
15.0735
14.9317
14.8131
14.7193
14.6438
14.5705
14.4945
14.4037
14.2784
14.1818
14.0966
14.0169
13.9746
13.8977
13.8066
13.7357
13.675
13.6255
13.5926
13.554
13.5185
13.4801
13.4327
13.3886
13.3547
13.3218
13.2863
13.247
13.1871
13.1148
13.0304
12.9534
12.8948
12.8233
12.7543
12.6997
12.6583
12.6307
12.5972
12.5599
12.5162
12.456
12.3921
12.3425
12.2972
12.2567
12.2249
12.1813
12.1221
12.0528
11.9611
11.8715
11.806
11.7518
11.7091
11.6798
11.642
11.6019
11.5578
11.5004
11.4164
11.2936
11.1297
10.9309
10.7059
10.4548
10.178
9.88602
9.59029
9.29181
8.99137
8.68955
8.38673
8.0832
7.77916
7.47476
7.17011
6.86528
6.56033
6.25528
5.95018
5.64504
5.33988
5.0347
4.72951
4.42431
4.11912
3.81393
3.50875
3.20358
2.89841
2.59328
2.28812
1.98304
1.67786
1.37288
1.0676
0.762794
0.457137
0.153896
17.761
17.667
17.532
17.3903
17.2407
17.0845
16.9234
16.7585
16.5907
16.4207
16.2493
16.0771
15.9048
15.7332
15.5633
15.3961
15.2329
15.0752
14.9327
14.8117
14.7136
14.6316
14.5493
14.4682
14.3825
14.2955
14.2277
14.1398
14.063
13.9896
13.9001
13.8112
13.7452
13.6912
13.6507
13.6249
13.5888
13.5481
13.5027
13.4423
13.3815
13.3339
13.2912
13.2516
13.2201
13.1698
13.1035
13.0232
12.9484
12.891
12.8208
12.7534
12.701
12.663
12.6388
12.605
12.565
12.5179
12.4533
12.384
12.3298
12.2824
12.2425
12.2147
12.1734
12.1168
12.049
11.9605
11.8715
11.8073
11.7556
11.7169
11.6918
11.6561
11.614
11.5665
11.5058
11.4188
11.2939
11.1291
10.9301
10.7052
10.4543
10.1775
9.88566
9.58998
9.29155
8.99116
8.68937
8.38658
8.08307
7.77904
7.47466
7.17002
6.8652
6.56025
6.25521
5.95012
5.64498
5.33982
5.03464
4.72945
4.42426
4.11907
3.81388
3.5087
3.20353
2.89836
2.59323
2.28807
1.98299
1.67782
1.37283
1.06756
0.762753
0.457085
0.153911
17.7613
17.6673
17.5324
17.3906
17.241
17.0848
16.9238
16.7589
16.5911
16.4212
16.2499
16.0779
15.9058
15.7344
15.5647
15.3978
15.2349
15.0772
14.9339
14.8106
14.7085
14.6218
14.5353
14.4548
14.3762
14.3056
14.2548
14.18
14.0971
14.0114
13.9132
13.8245
13.7632
13.7148
13.6791
13.6561
13.6222
13.5783
13.5256
13.4509
13.3715
13.3106
13.2605
13.2202
13.1913
13.1461
13.0855
13.0109
12.9395
12.8841
12.8163
12.7512
12.701
12.665
12.6417
12.6082
12.5665
12.5169
12.4488
12.3768
12.3207
12.2726
12.2338
12.2074
12.1676
12.1147
12.0497
11.9604
11.8725
11.8099
11.7604
11.7243
11.701
11.6671
11.6247
11.575
11.5114
11.4214
11.294
11.1283
10.9292
10.7045
10.4539
10.1772
9.88543
9.58979
9.29138
8.99101
8.68923
8.38645
8.08295
7.77894
7.47456
7.16992
6.86511
6.56016
6.25513
5.95004
5.6449
5.33974
5.03457
4.72938
4.42419
4.119
3.81382
3.50864
3.20347
2.8983
2.59317
2.28802
1.98294
1.67777
1.37278
1.06751
0.762702
0.457021
0.153929
17.7616
17.6677
17.5327
17.391
17.2413
17.0852
16.9242
16.7594
16.5917
16.4219
16.2507
16.0788
15.907
15.7359
15.5665
15.4
15.2374
15.0799
14.9362
14.8111
14.705
14.614
14.5256
14.447
14.3724
14.3082
14.2625
14.192
14.1089
14.0223
13.9233
13.8396
13.7842
13.7408
13.7079
13.686
13.6529
13.6061
13.5452
13.4541
13.3548
13.2835
13.2307
13.1921
13.1649
13.1226
13.0656
12.9957
12.9274
12.8741
12.8084
12.7447
12.6955
12.6602
12.6374
12.604
12.5614
12.5107
12.4417
12.3704
12.3156
12.2691
12.2318
12.2062
12.1673
12.1153
12.0504
11.9618
11.875
11.8136
11.7654
11.7305
11.7079
11.675