/*--------------------------------*- C++ -*----------------------------------*\
| =========                 |                                                 |
| \\      /  F ield         | OpenFOAM: The Open Source CFD Toolbox           |
|  \\    /   O peration     | Version:  v2006                                 |
|   \\  /    A nd           | Website:  www.openfoam.com                      |
|    \\/     M anipulation  |                                                 |
\*---------------------------------------------------------------------------*/
FoamFile
{
    version     2.0;
    format      ascii;
    class       volScalarField;
    location    "0.55";
    object      k;
}
// * * * * * * * * * * * * * * * * * * * * * * * * * * * * * * * * * * * * * //

dimensions      [0 2 -2 0 0 0 0];


internalField   nonuniform List<scalar> 
374400
(
0.0968933
0.115798
0.107332
0.0952995
0.0937387
0.0969418
0.104971
0.113838
0.121592
0.128134
0.13405
0.139551
0.14483
0.149954
0.155096
0.160216
0.165353
0.170494
0.175405
0.179799
0.183403
0.186165
0.188358
0.189951
0.191237
0.192214
0.192869
0.193856
0.195193
0.196889
0.199326
0.201817
0.20363
0.205089
0.206193
0.206929
0.208038
0.209528
0.2114
0.214056
0.216722
0.21864
0.220167
0.221314
0.222075
0.22322
0.224745
0.226653
0.228548
0.230059
0.231925
0.233784
0.235249
0.23634
0.237062
0.23814
0.23957
0.241339
0.243792
0.246185
0.247883
0.249214
0.250207
0.250863
0.251843
0.253144
0.254752
0.256984
0.259165
0.260719
0.261937
0.262847
0.263447
0.264346
0.265537
0.267015
0.269064
0.271947
0.275917
0.280828
0.286146
0.291409
0.296443
0.301046
0.304921
0.308003
0.310483
0.312517
0.314216
0.315652
0.316882
0.317949
0.318878
0.319686
0.320385
0.320982
0.32149
0.321921
0.322282
0.322584
0.322828
0.323021
0.323173
0.323291
0.323382
0.323452
0.323509
0.323554
0.323593
0.323625
0.323658
0.323685
0.323718
0.323748
0.323769
0.323948
0.323679
0.0968944
0.115796
0.107328
0.0952926
0.0937277
0.0969282
0.104952
0.113817
0.121571
0.128115
0.134037
0.139545
0.144835
0.149975
0.155134
0.160279
0.165443
0.170616
0.17556
0.179985
0.183613
0.186395
0.1886
0.190203
0.191497
0.192479
0.193137
0.194129
0.195472
0.197177
0.199624
0.202125
0.203944
0.205407
0.206513
0.207252
0.208364
0.209858
0.211734
0.214393
0.217062
0.218982
0.220509
0.221657
0.222418
0.223562
0.225086
0.226992
0.228884
0.230393
0.232255
0.234111
0.235571
0.23666
0.237379
0.238454
0.239879
0.241641
0.244084
0.246467
0.248156
0.249481
0.250468
0.25112
0.252095
0.253387
0.254984
0.257202
0.25937
0.260913
0.262121
0.263025
0.26362
0.264513
0.265694
0.26716
0.269192
0.272054
0.275997
0.280871
0.286155
0.291386
0.296397
0.300987
0.304858
0.307945
0.310432
0.31248
0.314193
0.315644
0.316892
0.317976
0.318923
0.319744
0.320454
0.321061
0.32158
0.322016
0.322384
0.322686
0.322932
0.323124
0.323274
0.32339
0.32348
0.32355
0.323604
0.323647
0.323687
0.323719
0.323751
0.32378
0.323812
0.323842
0.323863
0.324044
0.323775
0.0968962
0.115789
0.107317
0.0952728
0.0936989
0.0968961
0.104914
0.113772
0.121525
0.128075
0.134008
0.139533
0.144847
0.150017
0.155219
0.160416
0.165643
0.170886
0.175903
0.180397
0.184081
0.186903
0.189139
0.190763
0.192073
0.193066
0.193732
0.194736
0.196094
0.197816
0.200286
0.202807
0.204639
0.206112
0.207226
0.207969
0.209087
0.210587
0.212472
0.21514
0.217814
0.219736
0.221263
0.222411
0.223171
0.224315
0.225837
0.227739
0.229625
0.23113
0.232983
0.234828
0.236279
0.23736
0.238075
0.239142
0.240555
0.242302
0.244722
0.247077
0.248747
0.250055
0.25103
0.251673
0.252634
0.253909
0.255483
0.257667
0.259799
0.261315
0.262502
0.26339
0.263975
0.264852
0.266013
0.267454
0.26945
0.272259
0.276126
0.280908
0.286093
0.291236
0.296178
0.300721
0.30457
0.307658
0.310162
0.312232
0.313978
0.315467
0.316753
0.317875
0.318855
0.319707
0.320443
0.321073
0.321607
0.322058
0.322432
0.322739
0.322984
0.323174
0.32332
0.32343
0.323515
0.323579
0.323629
0.323667
0.323703
0.323733
0.323766
0.323792
0.323824
0.323855
0.323876
0.324056
0.323787
0.0968989
0.11578
0.107299
0.0952394
0.093649
0.0968393
0.104843
0.113692
0.121439
0.127993
0.13394
0.139487
0.144834
0.15005
0.155315
0.160593
0.165919
0.171277
0.176414
0.181022
0.1848
0.187691
0.189979
0.191639
0.192977
0.193991
0.19467
0.195694
0.197077
0.19883
0.20134
0.203898
0.205753
0.207244
0.208369
0.209119
0.210247
0.21176
0.213659
0.216344
0.219029
0.220956
0.222485
0.223632
0.224393
0.225535
0.227053
0.228948
0.230824
0.232318
0.234157
0.235985
0.237422
0.23849
0.239196
0.240249
0.241642
0.243364
0.245745
0.248058
0.249695
0.250974
0.251926
0.252553
0.253491
0.254732
0.256265
0.258392
0.260465
0.261938
0.26309
0.26395
0.264515
0.265364
0.266485
0.267877
0.269807
0.272527
0.276275
0.280914
0.285948
0.290955
0.295792
0.300272
0.304097
0.307194
0.309729
0.31185
0.31365
0.315196
0.316541
0.317719
0.318753
0.319653
0.320428
0.321092
0.321654
0.322123
0.322507
0.322814
0.323055
0.323237
0.323371
0.32347
0.323543
0.323594
0.323635
0.323667
0.323696
0.323722
0.32375
0.323775
0.323808
0.323839
0.32386
0.324044
0.323777
0.0969032
0.115765
0.107271
0.0951862
0.0935683
0.0967466
0.104728
0.113554
0.121287
0.127839
0.133799
0.139368
0.144755
0.150028
0.155375
0.160766
0.166232
0.171758
0.177079
0.181861
0.185785
0.188783
0.191155
0.192872
0.194254
0.195301
0.196001
0.197057
0.198481
0.200283
0.202856
0.205469
0.207361
0.208878
0.210022
0.210784
0.21193
0.213464
0.215386
0.218096
0.220796
0.222729
0.224259
0.225406
0.226166
0.227307
0.228821
0.230709
0.23257
0.23405
0.235867
0.237669
0.239083
0.240133
0.240826
0.241861
0.243227
0.244912
0.247235
0.24948
0.251065
0.252303
0.253223
0.25383
0.254738
0.255939
0.257417
0.25946
0.261442
0.262849
0.263948
0.26477
0.265311
0.266123
0.267197
0.268528
0.270369
0.272957
0.276519
0.280931
0.28573
0.29053
0.295211
0.2996
0.303394
0.306512
0.309097
0.311285
0.313166
0.314801
0.316232
0.317492
0.318599
0.319564
0.320398
0.321107
0.321703
0.322197
0.322594
0.322908
0.323144
0.323318
0.323442
0.323527
0.323585
0.323624
0.323654
0.323675
0.323697
0.323716
0.323741
0.323765
0.323796
0.323826
0.323848
0.324032
0.323768
0.0969101
0.115742
0.107228
0.0951052
0.093444
0.0966029
0.104546
0.113335
0.121038
0.127574
0.133535
0.139118
0.144543
0.149878
0.155324
0.160856
0.166513
0.172276
0.177862
0.182908
0.187054
0.190223
0.192723
0.194531
0.195984
0.197082
0.197817
0.198922
0.20041
0.20229
0.204964
0.207669
0.209621
0.211182
0.212356
0.213137
0.21431
0.215877
0.217836
0.220588
0.223317
0.225264
0.226802
0.22795
0.228709
0.229847
0.231354
0.233227
0.235069
0.23653
0.238318
0.240086
0.241469
0.242492
0.243166
0.24417
0.245493
0.247122
0.249364
0.251521
0.253036
0.254212
0.255082
0.255653
0.256505
0.25763
0.259016
0.260933
0.262787
0.264099
0.265115
0.265872
0.266368
0.267111
0.268093
0.269311
0.271004
0.273394
0.2767
0.280805
0.28529
0.289832
0.294335
0.298642
0.302435
0.305606
0.308271
0.310555
0.312536
0.314274
0.315813
0.317178
0.318383
0.319434
0.320344
0.321119
0.321764
0.322287
0.322699
0.323012
0.32324
0.323395
0.323496
0.323558
0.323591
0.323609
0.323621
0.323632
0.323646
0.323662
0.323684
0.323706
0.32374
0.323773
0.323799
0.323987
0.323726
0.0969203
0.11571
0.107165
0.094987
0.0932609
0.0963889
0.104273
0.113
0.120645
0.12714
0.133079
0.138655
0.144102
0.149492
0.155041
0.160744
0.16664
0.172728
0.178692
0.184126
0.188612
0.192043
0.194745
0.196694
0.198256
0.199435
0.200222
0.201407
0.202995
0.204996
0.207827
0.210671
0.212713
0.21434
0.215559
0.216369
0.217582
0.219197
0.221209
0.224018
0.226781
0.228741
0.230281
0.231428
0.232185
0.233319
0.234814
0.236666
0.238474
0.239905
0.241647
0.243361
0.244695
0.24568
0.246328
0.247293
0.248562
0.250118
0.25224
0.254257
0.255668
0.25676
0.257569
0.258102
0.258898
0.259945
0.261228
0.262978
0.264646
0.265823
0.266737
0.26742
0.26787
0.268547
0.26944
0.270543
0.272054
0.274173
0.277074
0.280691
0.284692
0.288827
0.29307
0.297272
0.301077
0.304337
0.307134
0.309565
0.311704
0.313595
0.315273
0.316764
0.31809
0.319255
0.320261
0.321109
0.321805
0.322363
0.322794
0.323111
0.323327
0.323465
0.323541
0.323573
0.323578
0.323575
0.323567
0.323565
0.323568
0.32358
0.3236
0.323623
0.323659
0.323695
0.323725
0.323919
0.323663
0.0969338
0.115664
0.107079
0.0948215
0.0930021
0.0960848
0.103879
0.112509
0.120058
0.126467
0.132342
0.137867
0.143296
0.148706
0.154341
0.160219
0.166408
0.172913
0.179416
0.185432
0.190446
0.194297
0.197327
0.199507
0.201251
0.202562
0.203437
0.204749
0.206503
0.2087
0.211782
0.21485
0.217037
0.218768
0.220058
0.220912
0.222187
0.223873
0.225964
0.228859
0.231676
0.233658
0.235206
0.236352
0.237106
0.238229
0.239706
0.241527
0.243296
0.244688
0.246372
0.248024
0.249303
0.25024
0.250854
0.251761
0.252948
0.254398
0.256374
0.258237
0.259522
0.260498
0.261207
0.261668
0.262348
0.263235
0.264316
0.265802
0.267207
0.268181
0.268911
0.269445
0.26979
0.270301
0.270973
0.271811
0.272988
0.274678
0.277034
0.280012
0.283399
0.287131
0.291205
0.295432
0.299353
0.302788
0.305759
0.308337
0.31059
0.312598
0.314415
0.316064
0.317558
0.318884
0.320031
0.320992
0.321773
0.322386
0.322842
0.323158
0.323354
0.323452
0.323481
0.323471
0.323438
0.323401
0.323374
0.32336
0.323359
0.32337
0.323396
0.323427
0.323472
0.323517
0.32356
0.323768
0.323525
0.0969529
0.115603
0.106961
0.094602
0.0926502
0.0956684
0.103336
0.11182
0.119215
0.125477
0.131211
0.136607
0.14194
0.147291
0.152938
0.158955
0.165454
0.172492
0.179713
0.186603
0.192464
0.196981
0.200547
0.203113
0.205159
0.206692
0.207714
0.209242
0.211271
0.213797
0.217293
0.220712
0.22312
0.225001
0.226389
0.227305
0.228662
0.230442
0.232632
0.235619
0.238473
0.24045
0.241974
0.243093
0.243827
0.244915
0.246338
0.248079
0.249751
0.251059
0.252623
0.254139
0.2553
0.256146
0.256698
0.257517
0.258583
0.259878
0.261604
0.263185
0.264272
0.265105
0.265722
0.266129
0.266741
0.26754
0.268503
0.269757
0.270865
0.271624
0.272197
0.272623
0.272902
0.273324
0.273863
0.274497
0.27531
0.276379
0.277766
0.279584
0.281876
0.284795
0.288503
0.292698
0.296836
0.300588
0.303862
0.306674
0.309076
0.311217
0.313232
0.315123
0.316846
0.318363
0.319659
0.320734
0.321596
0.322263
0.32275
0.323068
0.323244
0.323303
0.323292
0.323229
0.323154
0.323088
0.323043
0.323024
0.323027
0.323047
0.323087
0.323132
0.3232
0.32326
0.323321
0.323548
0.323335
0.096975
0.115529
0.106821
0.0943253
0.0922097
0.0951447
0.10264
0.110934
0.118103
0.124132
0.129624
0.134775
0.139863
0.145009
0.150509
0.15652
0.163255
0.170846
0.178987
0.187076
0.194145
0.199807
0.204263
0.207466
0.210016
0.211919
0.213184
0.215067
0.217552
0.220623
0.224816
0.228825
0.231611
0.233754
0.235304
0.236314
0.237797
0.239698
0.241984
0.244969
0.247735
0.249637
0.251099
0.252175
0.252881
0.253933
0.255313
0.257005
0.258632
0.259897
0.261396
0.26284
0.263935
0.264725
0.265235
0.265982
0.266952
0.268121
0.269702
0.271142
0.272105
0.272802
0.273274
0.273568
0.273975
0.274461
0.275001
0.275687
0.276228
0.276514
0.276639
0.276697
0.276717
0.276733
0.276746
0.276773
0.276842
0.276975
0.277039
0.277273
0.278276
0.280822
0.284771
0.289453
0.294172
0.298333
0.301653
0.304416
0.306842
0.30908
0.311303
0.313478
0.315491
0.317266
0.31878
0.320032
0.321034
0.3218
0.322342
0.322675
0.322828
0.322846
0.322778
0.322655
0.322543
0.322457
0.322415
0.322412
0.322445
0.322502
0.322591
0.322674
0.322786
0.322879
0.322982
0.323251
0.323094
0.0970005
0.11545
0.106658
0.0940243
0.091711
0.094548
0.101846
0.109905
0.116774
0.122516
0.127626
0.132414
0.137046
0.141789
0.146849
0.152557
0.159237
0.167088
0.176022
0.185487
0.19423
0.201267
0.207058
0.211314
0.214743
0.217324
0.219039
0.221609
0.224969
0.229086
0.234489
0.239315
0.242449
0.244714
0.246278
0.247278
0.248696
0.250462
0.252519
0.255125
0.257411
0.258908
0.260016
0.260825
0.261355
0.262146
0.263213
0.264552
0.265836
0.266841
0.268011
0.269095
0.269868
0.270409
0.270757
0.271271
0.271911
0.272652
0.273618
0.274533
0.275243
0.275883
0.276434
0.276822
0.277473
0.278384
0.279591
0.281173
0.282479
0.283309
0.283842
0.284157
0.284351
0.284526
0.284555
0.284359
0.28359
0.282023
0.279677
0.27675
0.275099
0.275957
0.279442
0.284902
0.290496
0.295171
0.298511
0.301223
0.303716
0.306109
0.308571
0.311067
0.313417
0.315479
0.317222
0.318674
0.31986
0.32078
0.321444
0.321857
0.322047
0.322061
0.321965
0.321812
0.321694
0.321627
0.321625
0.321677
0.32179
0.321914
0.32208
0.32222
0.322407
0.322555
0.322719
0.323052
0.322979
0.0970278
0.115365
0.106485
0.0937179
0.0911732
0.0939185
0.100984
0.108801
0.115306
0.120707
0.1253
0.129622
0.13357
0.137596
0.14188
0.146743
0.152709
0.160132
0.169366
0.179998
0.190771
0.200043
0.208198
0.214077
0.218822
0.222287
0.224522
0.227755
0.231624
0.235996
0.240356
0.243047
0.244319
0.244951
0.245313
0.2455
0.245797
0.246115
0.246551
0.247336
0.248203
0.248797
0.249267
0.249625
0.249863
0.250187
0.250619
0.251101
0.251464
0.25146
0.251189
0.250517
0.249668
0.249037
0.248574
0.24796
0.247497
0.247446
0.248364
0.25067
0.252762
0.254574
0.255855
0.256686
0.25775
0.259019
0.260459
0.262598
0.26513
0.267018
0.268463
0.269499
0.270128
0.271051
0.27229
0.273694
0.274856
0.274858
0.272857
0.268588
0.266307
0.267876
0.27325
0.280519
0.28711
0.291821
0.294694
0.296706
0.299036
0.301512
0.304135
0.307007
0.309816
0.312331
0.314473
0.316301
0.317836
0.319056
0.319949
0.320531
0.320846
0.320922
0.320868
0.320742
0.320666
0.320665
0.320757
0.320929
0.321167
0.321399
0.321675
0.32191
0.322192
0.32241
0.322666
0.323056
0.323083
0.0970523
0.115286
0.106318
0.0934205
0.0906248
0.0932991
0.100091
0.107713
0.11379
0.118797
0.122846
0.12652
0.129657
0.132628
0.135713
0.13902
0.143252
0.14897
0.157146
0.168054
0.181248
0.192467
0.202598
0.210284
0.215384
0.218695
0.220669
0.223439
0.226316
0.23023
0.230391
0.22875
0.226065
0.223047
0.220648
0.218993
0.216567
0.213359
0.210067
0.206065
0.203818
0.203444
0.203935
0.204817
0.205799
0.207608
0.210737
0.215104
0.219075
0.221833
0.224051
0.22512
0.225036
0.224768
0.224365
0.223617
0.222685
0.221397
0.220601
0.221791
0.225125
0.23035
0.23529
0.238844
0.244942
0.25406
0.2673
0.28343
0.294403
0.2994
0.301301
0.301866
0.301921
0.301343
0.299472
0.296889
0.293504
0.285986
0.27253
0.257532
0.249918
0.251808
0.260934
0.272253
0.281016
0.285858
0.287733
0.288575
0.290266
0.293089
0.296368
0.300078
0.303977
0.30746
0.310365
0.312783
0.314816
0.316475
0.317752
0.318683
0.319302
0.319588
0.319646
0.319601
0.319594
0.319678
0.319909
0.320213
0.320597
0.320963
0.321367
0.321705
0.322093
0.322387
0.322737
0.323164
0.323306
0.0970739
0.11522
0.106182
0.0931414
0.0901477
0.0927357
0.099299
0.106729
0.112375
0.117063
0.12054
0.123529
0.125853
0.127615
0.129132
0.130411
0.131836
0.134339
0.139554
0.150519
0.164106
0.180578
0.19869
0.217516
0.234675
0.252091
0.266743
0.292334
0.333409
0.375021
0.393309
0.388527
0.378518
0.365058
0.354499
0.347416
0.337186
0.323937
0.309071
0.284495
0.264082
0.251881
0.247649
0.248013
0.249044
0.252608
0.26115
0.274448
0.286679
0.295019
0.301344
0.303732
0.303323
0.302593
0.301627
0.299732
0.296918
0.29184
0.288104
0.290104
0.296327
0.300486
0.300655
0.299747
0.292829
0.271601
0.250411
0.24577
0.250438
0.259984
0.267887
0.272875
0.275926
0.279938
0.28433
0.28871
0.29058
0.287871
0.272476
0.248515
0.234013
0.235367
0.246621
0.260369
0.270086
0.274877
0.275846
0.275596
0.276241
0.278935
0.282918
0.287531
0.292646
0.297375
0.301299
0.304631
0.307591
0.310215
0.312489
0.314406
0.315917
0.316898
0.317439
0.317704
0.317945
0.318247
0.318685
0.319182
0.319748
0.320268
0.320812
0.321259
0.321752
0.322114
0.322551
0.323008
0.32325
0.0970904
0.115169
0.106107
0.0928885
0.0898026
0.0922795
0.0987203
0.105898
0.111318
0.115612
0.118748
0.121092
0.122643
0.12355
0.123313
0.122676
0.121102
0.119252
0.120893
0.129768
0.151948
0.197454
0.292396
0.379644
0.446269
0.492689
0.520257
0.563033
0.600977
0.625403
0.611829
0.577231
0.540262
0.509378
0.48739
0.473194
0.454171
0.430053
0.402187
0.352706
0.304079
0.277904
0.265771
0.266164
0.268041
0.275163
0.293999
0.331026
0.36499
0.387829
0.40496
0.402587
0.394893
0.383845
0.37445
0.359279
0.339043
0.30238
0.230344
0.141398
0.108838
0.106524
0.106903
0.105837
0.0986766
0.0883757
0.0831711
0.0852914
0.0940583
0.104046
0.113065
0.120345
0.125274
0.133188
0.144496
0.16033
0.181429
0.205474
0.216419
0.211348
0.210856
0.222081
0.240868
0.255919
0.263637
0.264934
0.263121
0.259237
0.256751
0.256819
0.259548
0.264236
0.269637
0.27571
0.282008
0.288205
0.294105
0.299533
0.304374
0.308497
0.311709
0.313855
0.315128
0.315823
0.316326
0.316819
0.317428
0.318079
0.318787
0.319426
0.32007
0.320587
0.321148
0.321548
0.32204
0.322504
0.322803
0.0970997
0.115145
0.106058
0.0927164
0.0895486
0.0919616
0.0983215
0.105301
0.110596
0.114569
0.117446
0.119414
0.120304
0.120394
0.119352
0.116926
0.112896
0.106642
0.104455
0.115551
0.171973
0.325748
0.454413
0.513226
0.546075
0.566794
0.581558
0.606363
0.609754
0.595823
0.558403
0.513725
0.47558
0.440262
0.414374
0.396078
0.370978
0.337942
0.287299
0.21866
0.162366
0.165669
0.178812
0.197944
0.219105
0.245025
0.304155
0.352017
0.422778
0.451757
0.437777
0.392597
0.337545
0.299397
0.272617
0.231071
0.180761
0.133234
0.100601
0.101854
0.133597
0.15785
0.158499
0.152579
0.148165
0.147678
0.150249
0.154005
0.15565
0.155242
0.153504
0.151322
0.149739
0.14697
0.143632
0.13921
0.135986
0.145287
0.166347
0.182523
0.198127
0.217962
0.23649
0.250567
0.256412
0.255345
0.251498
0.246062
0.24179
0.23934
0.238551
0.239351
0.24271
0.249084
0.258349
0.269711
0.280817
0.290675
0.298963
0.305424
0.309958
0.312716
0.314152
0.314796
0.315224
0.315689
0.316327
0.317043
0.31783
0.318532
0.319231
0.31978
0.32037
0.320776
0.321295
0.321753
0.322081
0.097102
0.115143
0.106013
0.0926101
0.0893641
0.0917462
0.0980613
0.104885
0.1101
0.113882
0.116494
0.118308
0.118647
0.11827
0.116579
0.112922
0.107022
0.0979969
0.0916387
0.112274
0.236593
0.390285
0.468922
0.434175
0.384967
0.391252
0.41595
0.42129
0.409681
0.382448
0.367401
0.33534
0.294042
0.263827
0.241513
0.227291
0.203569
0.15682
0.120221
0.0980424
0.099833
0.124124
0.160516
0.182905
0.206523
0.240569
0.292136
0.383448
0.4152
0.405424
0.339204
0.209328
0.132949
0.104878
0.0975109
0.103488
0.119261
0.136303
0.17589
0.298887
0.344667
0.35048
0.31564
0.281665
0.237231
0.213564
0.211546
0.217436
0.226565
0.233014
0.237818
0.241327
0.243739
0.24648
0.246799
0.243466
0.227899
0.188053
0.178539
0.180536
0.192906
0.211646
0.226406
0.23905
0.243611
0.243032
0.243155
0.242686
0.240653
0.237681
0.234471
0.232578
0.233671
0.239634
0.250624
0.264483
0.278087
0.289829
0.29928
0.306201
0.310601
0.312879
0.313775
0.314003
0.314207
0.314593
0.315252
0.316024
0.316874
0.317619
0.318351
0.318911
0.319519
0.319927
0.320468
0.320913
0.32127
0.0971052
0.115141
0.105976
0.0925292
0.0892393
0.0915998
0.0978858
0.104601
0.109732
0.113431
0.115804
0.117526
0.11749
0.116817
0.114615
0.110098
0.102957
0.0918715
0.0830004
0.120166
0.271986
0.391262
0.356842
0.311086
0.309636
0.334642
0.370748
0.363498
0.332993
0.308109
0.25842
0.179129
0.13918
0.113798
0.0956938
0.0845806
0.0765274
0.0634914
0.0547177
0.100882
0.123296
0.102235
0.133346
0.191636
0.242693
0.264657
0.322238
0.342033
0.30766
0.217135
0.119287
0.0857672
0.0807329
0.083447
0.0898115
0.104901
0.135561
0.195392
0.336551
0.410538
0.402831
0.388754
0.341612
0.302203
0.247411
0.219704
0.219711
0.227823
0.237019
0.245151
0.252908
0.259964
0.265299
0.272704
0.281589
0.293216
0.29071
0.254422
0.200415
0.184203
0.189458
0.2025
0.215126
0.227907
0.233486
0.238048
0.245077
0.249227
0.249512
0.24667
0.242117
0.238678
0.239101
0.245046
0.256607
0.27077
0.283819
0.294443
0.302704
0.308448
0.311712
0.312999
0.313189
0.313056
0.31308
0.313445
0.314186
0.315032
0.31594
0.316721
0.317476
0.318048
0.31867
0.319081
0.319646
0.320079
0.320469
0.0971108
0.115137
0.105942
0.0924555
0.0891456
0.0914876
0.0977453
0.104385
0.109429
0.113078
0.115273
0.116851
0.116652
0.115669
0.113048
0.107881
0.0998109
0.0871055
0.0769034
0.127083
0.281023
0.358378
0.313434
0.267817
0.248504
0.31217
0.33476
0.269038
0.204496
0.130915
0.0671822
0.0507159
0.0535363
0.0475311
0.0467547
0.0506657
0.0571067
0.0451963
0.072027
0.11088
0.10227
0.202919
0.278397
0.348501
0.34325
0.298365
0.273651
0.170574
0.101744
0.10103
0.0887904
0.0826779
0.0810505
0.0829949
0.0885689
0.119665
0.186622
0.329319
0.433205
0.428408
0.398035
0.381886
0.315009
0.27513
0.196124
0.162452
0.145602
0.145964
0.155457
0.168675
0.185948
0.2029
0.221426
0.245836
0.26814
0.296566
0.318516
0.298852
0.230419
0.190609
0.184783
0.192964
0.206344
0.221272
0.230225
0.240943
0.252434
0.258802
0.260305
0.25804
0.253833
0.250625
0.251217
0.257343
0.26829
0.281256
0.292388
0.30056
0.306563
0.310425
0.312249
0.312559
0.312247
0.311845
0.311839
0.312268
0.313119
0.31405
0.315017
0.315827
0.316604
0.317186
0.317826
0.318243
0.318835
0.319258
0.319686
0.0971185
0.115115
0.105901
0.0923963
0.0890734
0.0913984
0.0976299
0.104224
0.1092
0.11281
0.114891
0.116333
0.116034
0.114834
0.111883
0.106272
0.0975462
0.0836717
0.0730582
0.132397
0.282249
0.337205
0.259501
0.220754
0.209389
0.295384
0.300315
0.174327
0.0967559
0.0396152
0.0238585
0.0264869
0.0226282
0.0195673
0.0269029
0.0454448
0.0541279
0.0470747
0.0960049
0.128653
0.16375
0.319483
0.31401
0.357323
0.312787
0.127202
0.0673216
0.08665
0.0852606
0.0813368
0.0719133
0.0659468
0.0643213
0.0663651
0.0626955
0.123917
0.247578
0.405269
0.483757
0.402842
0.368472
0.350226
0.244913
0.223235
0.108419
0.0700931
0.0617833
0.0604142
0.0655504
0.0749359
0.0927818
0.10996
0.138135
0.19939
0.240641
0.289204
0.330283
0.320777
0.252177
0.195703
0.180069
0.185976
0.201391
0.218333
0.230529
0.244296
0.256847
0.264434
0.266899
0.265617
0.262414
0.260082
0.261007
0.267127
0.277328
0.289174
0.298822
0.305169
0.309202
0.311286
0.311871
0.311556
0.310876
0.310474
0.310562
0.311158
0.312133
0.313147
0.314166
0.315003
0.315797
0.316391
0.317049
0.317475
0.318094
0.318509
0.318977
0.0971196
0.11511
0.105892
0.0923732
0.0890274
0.0913381
0.0975487
0.104119
0.109051
0.112632
0.114641
0.11599
0.115624
0.114286
0.111119
0.105237
0.0960911
0.0815021
0.0708944
0.135047
0.277159
0.321501
0.242338
0.205163
0.190529
0.238208
0.0489275
0.0536948
0.0566693
0.120327
0.150058
0.252589
0.339019
0.309729
0.339116
0.0524895
0.107918
0.273023
0.433327
0.494472
0.387727
0.350496
0.325058
0.179637
0.10381
0.139691
0.209357
0.276268
0.338481
0.334526
0.264881
0.198462
0.176581
0.181374
0.198802
0.216462
0.230318
0.245035
0.257997
0.26662
0.270381
0.270229
0.267858
0.265887
0.266804
0.272552
0.282058
0.293241
0.302292
0.30759
0.310349
0.311357
0.311263
0.310499
0.309721
0.309384
0.309585
0.310336
0.311407
0.312485
0.313539
0.314394
0.315201
0.315805
0.316478
0.316913
0.31755
0.317967
0.318454
0.097118
0.115114
0.105896
0.092353
0.0889584
0.0912467
0.0974251
0.103964
0.108834
0.112366
0.114275
0.115481
0.115016
0.113479
0.109997
0.103725
0.0939763
0.0783848
0.067845
0.136924
0.269804
0.298889
0.203755
0.172266
0.162522
0.189327
0.0464342
0.0528289
0.0698333
0.132122
0.150744
0.301728
0.34727
0.30713
0.311269
0.0582129
0.113825
0.317135
0.462492
0.496547
0.365089
0.323494
0.287543
0.135835
0.0446684
0.0599625
0.108363
0.227066
0.329633
0.349824
0.280671
0.199133
0.169786
0.175018
0.195327
0.212311
0.228079
0.244228
0.258408
0.268788
0.274706
0.276577
0.275793
0.274153
0.274622
0.279248
0.287461
0.297112
0.305139
0.309489
0.3109
0.310706
0.309665
0.308411
0.307631
0.307486
0.30795
0.308978
0.310216
0.311394
0.312505
0.313388
0.31422
0.314842
0.315539
0.315993
0.316658
0.317089
0.317594
0.0971202
0.115094
0.105874
0.0923133
0.0888603
0.0911218
0.0972586
0.103759
0.108552
0.11201
0.113801
0.114819
0.114222
0.112432
0.108546
0.101799
0.0913238
0.0746295
0.0640941
0.137547
0.258079
0.276566
0.179503
0.147978
0.136543
0.137674
0.0514522
0.0588509
0.0597058
0.115893
0.156686
0.316051
0.341264
0.291913
0.295271
0.0947396
0.163008
0.385233
0.493801
0.484265
0.330116
0.28589
0.232389
0.109896
0.0434336
0.0467006
0.0584399
0.102013
0.266133
0.335737
0.27836
0.192469
0.159477
0.169642
0.188828
0.203549
0.221288
0.240514
0.257838
0.270328
0.278889
0.283776
0.285132
0.284236
0.28368
0.285735
0.291205
0.299228
0.305694
0.308382
0.308429
0.307165
0.305452
0.304259
0.303905
0.30425
0.305389
0.306829
0.308334
0.309659
0.31085
0.311778
0.312651
0.313309
0.314053
0.314541
0.315256
0.31571
0.316256
0.0971249
0.115072
0.10584
0.0922603
0.0887451
0.0909779
0.0970622
0.103509
0.108214
0.111569
0.113235
0.11402
0.113263
0.111179
0.10683
0.0995711
0.0883591
0.0706887
0.0593805
0.132302
0.241207
0.252615
0.153677
0.121339
0.106015
0.10243
0.0521175
0.0649382
0.06382
0.058926
0.174569
0.290409
0.30646
0.271008
0.290232
0.106214
0.213091
0.445438
0.526642
0.431361
0.285817
0.243736
0.21031
0.120707
0.0544823
0.0611528
0.0622891
0.0686982
0.100789
0.230882
0.232779
0.154812
0.143774
0.158258
0.170949
0.186469
0.210715
0.238442
0.258808
0.273704
0.284256
0.291428
0.294296
0.293377
0.290814
0.290149
0.292306
0.297421
0.300832
0.301704
0.301013
0.29932
0.298057
0.297704
0.298207
0.299682
0.3017
0.303697
0.305559
0.307081
0.308385
0.309387
0.310335
0.311062
0.311885
0.312433
0.313227
0.313711
0.314332
0.0971317
0.115045
0.105793
0.0921802
0.0885974
0.0907956
0.0968118
0.103175
0.107777
0.110971
0.112492
0.112962
0.111994
0.109532
0.104618
0.0967592
0.0848368
0.0663155
0.0531242
0.120146
0.225329
0.237485
0.140485
0.108816
0.0902911
0.0809153
0.0363148
0.0553079
0.0558232
0.101704
0.243492
0.228749
0.250363
0.226119
0.259057
0.104677
0.214653
0.444245
0.515044
0.382272
0.260541
0.225083
0.215713
0.151883
0.0519036
0.0566423
0.0470754
0.110641
0.136593
0.138068
0.141073
0.120896
0.110621
0.117476
0.129232
0.156951
0.200234
0.239825
0.26726
0.283023
0.293282
0.298955
0.300177
0.29851
0.294279
0.291053
0.290126
0.289178
0.287656
0.286121
0.285141
0.284942
0.285608
0.287352
0.289849
0.292729
0.295679
0.298338
0.300658
0.302491
0.304031
0.305221
0.306347
0.307226
0.308203
0.308866
0.309808
0.31034
0.311122
0.0971391
0.115027
0.105757
0.0920874
0.0884644
0.0906325
0.0965929
0.10286
0.107377
0.110407
0.111806
0.111977
0.110821
0.10801
0.102643
0.0943088
0.0820612
0.0635433
0.0472696
0.0990073
0.212288
0.236272
0.148156
0.113499
0.0954606
0.0873318
0.0259529
0.0362218
0.0853939
0.267637
0.326714
0.177799
0.184903
0.183547
0.214512
0.0897234
0.170508
0.415112
0.495716
0.385395
0.272235
0.243272
0.241389
0.195818
0.0555677
0.0555935
0.0525524
0.125746
0.181847
0.200816
0.153262
0.117742
0.0971433
0.0815423
0.0976605
0.143304
0.203097
0.254307
0.285714
0.299466
0.30261
0.302193
0.299149
0.292494
0.285986
0.281378
0.277723
0.272837
0.268819
0.26719
0.267759
0.270321
0.273904
0.277746
0.281559
0.285218
0.288727
0.29182
0.294524
0.296703
0.298573
0.300049
0.30143
0.302521
0.303697
0.304507
0.305646
0.306227
0.307237
0.0971459
0.115017
0.105733
0.0920135
0.0883804
0.090529
0.0964529
0.10265
0.107105
0.110032
0.111343
0.111323
0.110041
0.106996
0.10135
0.0927705
0.0804196
0.0624731
0.0444117
0.0779992
0.199301
0.238852
0.165531
0.126611
0.111455
0.108315
0.0282141
0.0712294
0.200665
0.341447
0.346903
0.163589
0.123391
0.150028
0.175733
0.100162
0.160919
0.39516
0.482895
0.392551
0.2949
0.279353
0.278796
0.238622
0.0632908
0.0619725
0.0432423
0.0920124
0.139602
0.168618
0.167169
0.109748
0.0828414
0.0652933
0.0905386
0.144
0.209615
0.266569
0.300405
0.309299
0.305927
0.293911
0.280888
0.270171
0.263353
0.260283
0.258244
0.255559
0.25406
0.254735
0.257688
0.261987
0.26674
0.271258
0.275487
0.27941
0.283152
0.286497
0.289487
0.291952
0.294097
0.29581
0.297403
0.298664
0.300002
0.300934
0.302238
0.302853
0.304073
0.0971524
0.11501
0.105707
0.0919534
0.0883153
0.0904548
0.0963458
0.102497
0.106889
0.109755
0.110966
0.110861
0.109439
0.106229
0.100347
0.091683
0.0792159
0.0619856
0.0435433
0.0597741
0.180391
0.241991
0.193105
0.152904
0.141909
0.140765
0.0856273
0.176478
0.260469
0.357242
0.322304
0.163417
0.0850051
0.134623
0.158295
0.116955
0.162075
0.377301
0.471199
0.406627
0.318526
0.304878
0.32334
0.288691
0.0703343
0.071873
0.0484774
0.103036
0.131864
0.154206
0.159135
0.10562
0.0763981
0.0613982
0.0899879
0.144289
0.211161
0.269629
0.304483
0.311227
0.300306
0.277315
0.257875
0.245021
0.239576
0.238932
0.240112
0.24161
0.243748
0.247146
0.251599
0.256525
0.261427
0.266017
0.270358
0.2744
0.278307
0.281864
0.285104
0.287814
0.290192
0.292104
0.293877
0.295287
0.296768
0.297809
0.299258
0.299914
0.301312
0.0971588
0.114991
0.105668
0.0919081
0.0882613
0.0903966
0.0962594
0.102388
0.106728
0.109559
0.110687
0.110532
0.10901
0.105674
0.0996312
0.090913
0.0783945
0.0617452
0.0435006
0.0487045
0.160231
0.241888
0.225235
0.175933
0.162168
0.202042
0.227916
0.250423
0.276333
0.343642
0.286748
0.157988
0.0628446
0.129975
0.163167
0.139913
0.164579
0.363388
0.461677
0.420976
0.338247
0.326654
0.35169
0.316784
0.0769178
0.0749896
0.0617128
0.110907
0.134771
0.151053
0.15379
0.10588
0.0766819
0.0624142
0.0907916
0.143522
0.209149
0.267105
0.29983
0.302976
0.287423
0.260665
0.23936
0.226873
0.223142
0.224474
0.228891
0.233679
0.238313
0.243092
0.248003
0.252842
0.257507
0.261942
0.26627
0.270401
0.274446
0.278175
0.281605
0.284499
0.287049
0.28911
0.29102
0.292545
0.29414
0.295269
0.296838
0.297531
0.299078
0.0971594
0.114987
0.105659
0.091895
0.0882271
0.0903565
0.096199
0.102317
0.106626
0.109433
0.110505
0.110317
0.108734
0.105313
0.0991857
0.0904113
0.0778993
0.0615727
0.0439564
0.0417188
0.145084
0.240186
0.242343
0.201609
0.186929
0.226117
0.273854
0.149869
0.118735
0.113127
0.110775
0.114798
0.1316
0.175506
0.212598
0.267711
0.259052
0.275609
0.323171
0.269251
0.157719
0.0570417
0.105217
0.146242
0.127919
0.119417
0.122855
0.106931
0.0495176
0.0113282
0.00767168
0.00948148
0.0169941
0.0613621
0.143229
0.165243
0.353502
0.451265
0.432515
0.35039
0.338864
0.38239
0.357563
0.219377
0.0572268
0.0540013
0.0760098
0.0840438
0.0534161
0.0425852
0.0387004
0.0451142
0.0812457
0.0738924
0.0709034
0.11323
0.137846
0.153181
0.151895
0.107517
0.0788769
0.064475
0.0906903
0.140578
0.203186
0.258022
0.287917
0.289665
0.273284
0.247372
0.227565
0.217038
0.2147
0.217276
0.22339
0.229737
0.235521