/*--------------------------------*- C++ -*----------------------------------*\
| =========                 |                                                 |
| \\      /  F ield         | OpenFOAM: The Open Source CFD Toolbox           |
|  \\    /   O peration     | Version:  v2006                                 |
|   \\  /    A nd           | Website:  www.openfoam.com                      |
|    \\/     M anipulation  |                                                 |
\*---------------------------------------------------------------------------*/
FoamFile
{
    version     2.0;
    format      ascii;
    class       volScalarField;
    location    "0.49";
    object      omega;
}
// * * * * * * * * * * * * * * * * * * * * * * * * * * * * * * * * * * * * * //

dimensions      [0 0 -1 0 0 0 0];


internalField   nonuniform List<scalar> 
374400
(
281.164
306.999
295.993
280.638
279.647
284.568
295.828
306.661
315.778
323.433
330.488
337.066
343.479
349.752
355.954
361.987
368.012
374.018
379.779
385.015
389.371
392.734
395.409
397.346
398.912
400.096
400.881
402.075
403.68
405.697
408.555
411.43
413.494
415.142
416.382
417.197
418.435
420.083
422.141
425.022
427.866
429.881
431.468
432.65
433.422
434.591
436.133
438.041
439.908
441.383
443.194
444.977
446.373
447.408
448.081
449.099
450.44
452.085
454.347
456.532
458.067
459.265
460.154
460.73
461.605
462.754
464.164
466.103
467.973
469.286
470.306
471.063
471.55
472.293
473.269
474.468
476.107
478.368
481.34
484.765
488.192
491.304
494.05
496.395
498.29
499.793
501.036
502.092
503.001
503.788
504.479
505.086
505.616
506.074
506.467
506.801
507.083
507.32
507.514
507.67
507.793
507.887
507.96
508.017
508.061
508.096
508.126
508.151
508.176
508.198
508.223
508.243
508.271
508.296
508.315
508.471
508.241
281.166
306.997
295.988
280.628
279.632
284.549
295.803
306.634
315.754
323.411
330.474
337.06
343.486
349.776
355.998
362.056
368.109
374.147
379.941
385.206
389.586
392.966
395.651
397.598
399.168
400.357
401.145
402.344
403.955
405.977
408.843
411.724
413.793
415.445
416.686
417.503
418.742
420.392
422.452
425.335
428.18
430.193
431.779
432.962
433.732
434.9
436.439
438.345
440.208
441.681
443.487
445.266
446.658
447.689
448.36
449.374
450.71
452.349
454.6
456.774
458.302
459.492
460.376
460.948
461.817
462.959
464.361
466.286
468.144
469.447
470.459
471.21
471.694
472.431
473.399
474.589
476.215
478.458
481.408
484.806
488.204
491.294
494.019
496.352
498.242
499.747
500.997
502.065
502.987
503.788
504.492
505.112
505.653
506.122
506.522
506.862
507.15
507.389
507.586
507.742
507.864
507.957
508.028
508.084
508.128
508.163
508.193
508.217
508.243
508.264
508.289
508.311
508.338
508.365
508.384
508.541
508.311
281.169
306.988
295.973
280.6
279.594
284.507
295.752
306.58
315.703
323.369
330.444
337.049
343.503
349.828
356.097
362.21
368.326
374.434
380.299
385.629
390.058
393.474
396.186
398.149
399.733
400.933
401.726
402.934
404.556
406.592
409.475
412.371
414.448
416.106
417.352
418.17
419.413
421.068
423.132
426.018
428.861
430.873
432.456
433.635
434.404
435.568
437.102
439.001
440.856
442.32
444.115
445.882
447.263
448.286
448.951
449.956
451.279
452.902
455.129
457.276
458.783
459.956
460.828
461.391
462.248
463.373
464.753
466.647
468.471
469.75
470.744
471.481
471.955
472.68
473.629
474.796
476.391
478.59
481.478
484.805
488.132
491.159
493.837
496.139
498.019
499.53
500.797
501.888
502.838
503.67
504.404
505.052
505.618
506.106
506.524
506.878
507.175
507.421
507.619
507.776
507.895
507.985
508.054
508.106
508.146
508.177
508.204
508.227
508.25
508.271
508.296
508.316
508.344
508.371
508.391
508.548
508.318
281.172
306.977
295.95
280.554
279.53
284.432
295.661
306.481
315.604
323.279
330.37
337.002
343.496
349.873
356.212
362.412
368.629
374.851
380.835
386.271
390.786
394.263
397.02
399.015
400.622
401.838
402.643
403.867
405.508
407.568
410.481
413.404
415.497
417.166
418.418
419.242
420.491
422.153
424.224
427.116
429.96
431.969
433.549
434.723
435.489
436.647
438.173
440.058
441.898
443.35
445.126
446.873
448.237
449.246
449.9
450.89
452.191
453.786
455.973
458.076
459.549
460.695
461.544
462.092
462.926
464.02
465.362
467.203
468.975
470.215
471.177
471.889
472.347
473.047
473.965
475.092
476.633
478.761
481.555
484.771
487.988
490.92
493.527
495.787
497.657
499.184
500.484
501.619
502.617
503.497
504.278
504.968
505.571
506.091
506.535
506.909
507.218
507.47
507.667
507.819
507.931
508.013
508.073
508.117
508.149
508.174
508.197
508.217
508.237
508.257
508.28
508.302
508.331
508.357
508.379
508.539
508.311
281.178
306.958
295.914
280.479
279.424
284.31
295.509
306.311
315.427
323.105
330.214
336.873
343.416
349.86
356.293
362.614
368.978
375.371
381.533
387.137
391.786
395.361
398.192
400.235
401.881
403.124
403.947
405.197
406.871
408.97
411.932
414.896
417.016
418.703
419.969
420.8
422.06
423.735
425.819
428.722
431.567
433.573
435.147
436.316
437.077
438.229
439.742
441.611
443.43
444.862
446.612
448.329
449.667
450.654
451.295
452.263
453.534
455.089
457.213
459.247
460.67
461.773
462.591
463.119
463.921
464.973
466.261
468.021
469.709
470.889
471.803
472.481
472.917
473.584
474.458
475.531
476.995
479.011
481.657
484.701
487.747
490.539
493.044
495.251
497.115
498.672
500.02
501.218
502.286
503.239
504.087
504.836
505.492
506.057
506.538
506.939
507.266
507.526
507.726
507.875
507.981
508.055
508.104
508.139
508.162
508.18
508.197
508.212
508.23
508.246
508.269
508.29
508.319
508.347
508.369
508.53
508.302
281.187
306.93
295.859
280.365
279.26
284.12
295.269
306.036
315.131
322.801
329.915
336.596
343.188
349.708
356.258
362.736
369.302
375.936
382.363
388.22
393.079
396.81
399.757
401.881
403.588
404.876
405.727
407.02
408.748
410.911
413.952
416.986
419.151
420.871
422.158
423.002
424.28
425.975
428.083
431.007
433.86
435.864
437.432
438.594
439.35
440.491
441.989
443.834
445.623
447.03
448.743
450.418
451.72
452.677
453.296
454.23
455.454
456.948
458.983
460.921
462.269
463.309
464.076
464.569
465.317
466.297
467.495
469.134
470.701
471.793
472.635
473.257
473.654
474.263
475.062
476.044
477.39
479.249
481.695
484.51
487.341
489.958
492.344
494.5
496.372
497.98
499.401
500.687
501.848
502.893
503.83
504.661
505.388
506.013
506.542
506.977
507.323
507.591
507.788
507.926
508.018
508.075
508.108
508.125
508.136
508.144
508.154
508.164
508.18
508.197
508.22
508.242
508.275
508.305
508.332
508.495
508.271
281.201
306.89
295.779
280.198
279.017
283.836
294.907
305.613
314.658
322.298
329.392
336.076
342.704
349.294
355.976
362.647
369.47
376.445
383.253
389.492
394.674
398.649
401.779
404.029
405.834
407.193
408.09
409.45
411.265
413.53
416.699
419.843
422.077
423.846
425.165
426.03
427.337
429.066
431.207
434.16
437.021
439.02
440.58
441.732
442.479
443.608
445.085
446.899
448.649
450.02
451.68
453.295
454.545
455.461
456.053
456.945
458.109
459.523
461.432
463.224
464.462
465.414
466.115
466.565
467.251
468.145
469.231
470.698
472.08
473.041
473.782
474.332
474.684
475.227
475.936
476.805
477.986
479.611
481.733
484.198
486.695
489.054
491.294
493.409
495.316
497.018
498.562
499.977
501.274
502.444
503.493
504.425
505.241
505.94
506.522
506.994
507.366
507.645
507.843
507.972
508.048
508.086
508.098
508.098
508.093
508.091
508.092
508.097
508.111
508.128
508.152
508.177
508.213
508.246
508.276
508.443
508.224
281.22
306.833
295.667
279.963
278.672
283.43
294.383
304.989
313.944
321.507
328.54
335.178
341.804
348.436
355.239
362.123
369.273
376.689
384.055
390.871
396.563
400.932
404.366
406.828
408.797
410.272
411.247
412.719
414.675
417.106
420.486
423.812
426.161
428.009
429.381
430.277
431.627
433.404
435.592
438.589
441.466
443.464
445.013
446.153
446.891
448.002
449.453
451.229
452.933
454.263
455.865
457.415
458.606
459.471
460.026
460.859
461.937
463.239
464.98
466.584
467.67
468.484
469.07
469.44
469.997
470.718
471.587
472.769
473.873
474.628
475.195
475.61
475.871
476.274
476.805
477.468
478.391
479.69
481.432
483.477
485.622
487.757
489.869
491.971
493.95
495.796
497.48
499.024
500.448
501.751
502.941
504.013
504.957
505.762
506.427
506.958
507.364
507.655
507.846
507.954
508
508.003
507.986
507.961
507.939
507.924
507.92
507.925
507.942
507.964
507.998
508.029
508.074
508.115
508.154
508.331
508.124
281.246
306.756
295.517
279.65
278.199
282.872
293.659
304.106
312.911
320.328
327.218
333.735
340.274
346.865
353.727
360.807
368.315
376.315
384.434
392.141
398.65
403.656
407.593
410.41
412.653
414.33
415.436
417.099
419.297
422.011
425.736
429.346
431.868
433.832
435.277
436.216
437.623
439.458
441.699
444.726
447.591
449.56
451.075
452.185
452.902
453.979
455.38
457.09
458.716
459.98
461.489
462.933
464.031
464.824
465.331
466.093
467.072
468.241
469.754
471.086
471.97
472.627
473.101
473.401
473.861
474.44
475.114
475.952
476.661
477.131
477.482
477.744
477.909
478.173
478.517
478.931
479.474
480.224
481.237
482.523
483.984
485.665
487.625
489.787
492.003
494.125
496.058
497.789
499.33
500.796
502.187
503.447
504.54
505.457
506.206
506.799
507.246
507.557
507.745
507.832
507.845
507.817
507.763
507.713
507.674
507.652
507.649
507.659
507.687
507.719
507.769
507.812
507.874
507.926
507.981
508.174
507.989
281.277
306.663
295.332
279.256
277.606
282.165
292.729
302.964
311.527
318.711
325.349
331.608
337.906
344.302
351.055
358.206
366.014
374.658
383.81
392.791
400.565
406.697
411.497
414.917
417.629
419.646
420.972
422.958
425.56
428.745
433.049
437.112
439.897
442.02
443.553
444.54
446
447.858
450.084
452.989
455.699
457.556
458.988
460.051
460.738
461.786
463.166
464.879
466.539
467.838
469.411
470.924
472.072
472.891
473.404
474.165
475.111
476.208
477.564
478.636
479.248
479.597
479.783
479.869
479.966
480.047
480.085
480.09
480.031
479.937
479.819
479.728
479.656
479.568
479.475
479.416
479.418
479.469
479.731
480.339
481.401
482.954
484.905
487.257
489.817
492.13
494.051
495.864
497.554
499.194
500.834
502.347
503.659
504.752
505.642
506.341
506.859
507.204
507.39
507.45
507.432
507.357
507.269
507.199
507.158
507.147
507.164
507.203
507.267
507.329
507.414
507.484
507.582
507.66
507.747
507.972
507.831
281.313
306.56
295.122
278.826
276.925
281.358
291.663
301.623
309.873
316.741
322.966
328.844
334.656
340.639
346.938
353.887
361.717
370.777
380.962
391.509
400.989
408.503
414.584
419.001
422.525
425.155
426.885
429.476
432.839
436.928
442.242
446.944
449.977
452.162
453.657
454.6
455.948
457.615
459.543
461.944
464.043
465.441
466.502
467.308
467.831
468.654
469.773
471.225
472.697
473.877
475.322
476.721
477.783
478.561
479.049
479.81
480.775
481.933
483.363
484.519
485.267
485.834
486.233
486.494
486.932
487.392
487.704
487.68
487.145
486.41
485.78
485.307
484.992
484.535
483.934
483.182
482.196
480.999
479.546
478.162
477.829
478.649
480.727
483.76
486.93
489.455
491.299
493.222
495.135
497.001
498.922
500.711
502.249
503.518
504.563
505.413
506.059
506.49
506.724
506.796
506.765
506.662
506.564
506.504
506.492
506.52
506.6
506.694
506.818
506.93
507.07
507.187
507.34
507.458
507.59
507.862
507.785
281.352
306.451
294.905
278.379
276.192
280.503
290.497
300.185
308.024
314.505
320.168
325.544
330.553
335.812
341.257
347.388
354.579
363.38
374.094
386.022
397.632
407.339
415.721
421.624
426.37
429.833
432.058
435.288
439.201
443.652
448.391
451.616
453.28
454.211
454.727
455.014
455.402
455.778
456.192
456.301
456.149
455.792
455.467
455.367
455.371
455.426
455.612
456.125
456.892
457.458
458.21
459.223
460.304
461.328
462.037
463.296
465.155
467.875
471.608
474.558
476.162
476.976
477.346
477.48
477.559
477.456
477.198
477.59
478.136
478.343
478.361
478.301
478.217
478.092
477.911
477.603
477.021
476.106
474.549
472.903
472.584
473.697
476.289
480.1
483.678
485.946
487.399
489.104
491.206
493.36
495.614
497.827
499.739
501.337
502.681
503.817
504.702
505.305
505.654
505.797
505.803
505.732
505.671
505.662
505.721
505.845
506.026
506.212
506.427
506.619
506.839
507.021
507.243
507.412
507.608
507.923
507.914
281.386
306.348
294.693
277.936
275.45
279.654
289.284
298.774
306.061
312.153
317.164
321.821
325.873
329.964
334.08
338.461
343.836
350.945
360.687
373.065
387.247
398.796
409.308
417.302
422.768
426.36
428.485
431.552
434.634
438.856
440.293
439.175
437.25
434.625
432.287
430.614
427.961
424.323
419.68
413.857
410.025
407.929
407.663
407.864
408.224
409.344
411.313
414.825
419.226
423.38
428.732
433.716
437.366
440.089
441.454
444.036
447.492
450.123
457.498
468.217
476.776
484.359
489.833
493.356
498.592
503.951
506.672
505.375
499.569
494.392
490.783
488.429
486.927
484.997
482.822
480.205
476.489
471.237
465.08
460.556
460.11
463.034
468.705
474.258
478.386
480.096
480.631
481.943
484.464
487.305
490.344
493.429
496.037
498.145
499.922
501.456
502.709
503.633
504.241
504.578
504.701
504.701
504.702
504.76
504.934
505.168
505.47
505.772
506.096
506.384
506.692
506.947
507.24
507.46
507.718
508.063
508.127
281.415
306.263
294.514
277.533
274.794
278.874
288.221
297.462
304.247
310.006
314.259
318.231
321.235
323.877
326.278
328.133
330.281
333.552
340.018
352.39
367.215
385.839
405.79
424.675
441.532
456.483
469.098
490.02
520.662
553.311
568.367
565.883
559.998
550.615
542.465
536.741
527.6
515.187
496.303
464.802
439.146
427.791
427.741
429.071
431.477
438.257
450.785
469.128
488.208
501.943
515.136
524.526
530.037
532.782
534.291
535.817
536.928
538.351
537.758
530.942
516.812
500.481
489.137
481.968
473.744
468.869
468.978
469.885
470.023
470.55
471.35
472.222
472.941
474.239
475.901
477.168
476.505
472.32
461.359
449.173
445.089
448.511
456.126
463.858
468.93
470.233
469.958
470.56
473.191
476.832
480.77
484.841
488.267
491.053
493.566
495.932
498.048
499.801
501.152
502.092
502.649
502.945
503.174
503.431
503.791
504.202
504.669
505.115
505.564
505.953
506.351
506.675
507.037
507.302
507.618
507.981
508.115
281.433
306.208
294.4
277.189
274.307
278.236
287.454
296.338
302.884
308.195
312.01
315.169
317.4
318.786
319.086
318.659
316.806
314.605
316.248
326.149
354.021
405.359
491.811
557.822
602.999
634.435
650.407
676.559
700.03
716.719
710.782
694.991
677.002
661.849
650.857
643.857
633.934
621.961
599.141
549.01
498.268
466.57
453.305
453.592
455.313
461.69
479.218
502.187
528.626
547.255
563.281
578.561
586.448
586.22
584.66
576.372
545.602
511.582
441.487
359.341
323.122
303.625
290.757
282.448
273.805
270.525
273.956
287.386
307.866
325.013
339.977
351.357
358.797
370.343
385.357
402.025
421.218
438.266
440.684
435.356
434.255
439.736
449.012
456.588
459.742
459.107
456.318
454.185
454.581
457.556
461.951
466.662
471.565
476.536
481.567
486.396
490.705
494.315
497.151
499.146
500.394
501.126
501.642
502.104
502.64
503.205
503.809
504.367
504.911
505.372
505.83
506.196
506.6
506.888
507.241
507.609
507.781
281.444
306.182
294.33
276.947
273.951
277.795
286.91
295.551
301.936
306.863
310.431
312.98
314.541
314.973
313.889
311.395
306.125
297.984
293.3
308.794
379.978
518.258
608.821
647.109
667.578
681.293
687.045
702.715
707.657
700.018
676.107
647.936
627.724
613.58
602.642
596.686
588.197
567.142
520.93
447.725
374.368
374.688
389.552
414.735
432.879
471.854
517.66
559.36
601.029
600.11
575.56
518.447
451.19
405.808
389.387
365.504
310.541
272.777
297.429
359.171
377.122
374.676
373.181
371.513
365.292
354.853
341.716
328.521
324.376
325.805
331.422
337.838
342.368
349.26
359.389
372.599
394.092
418.762
429.052
426.362
424.917
430.134
438.169
447.243
451.067
449.711
444.724
438.366
435.211
435.285
437.891
442.544
449.001
457.914
467.957
477.159
484.853
490.828
495.11
497.847
499.378
500.158
500.656
501.12
501.695
502.324
503.002
503.624
504.219
504.714
505.199
505.581
506.001
506.294
506.668
507.028
507.223
281.449
306.176
294.273
276.796
273.688
277.506
286.536
295.016
301.302
305.934
309.304
311.551
312.448
312.28
310.401
306.205
298.192
285.767
274.682
305.639
443.903
563.508
618.003
596.56
559.191
557.032
572.189
577.812
570.475
549.121
532.45
506.111
484.714
467.126
445.349
427.564
394.996
350.723
339.015
318.179
303.343
329.525
381.132
418.122
451.51
478.749
544.349
592.028
583.922
546.544
430.786
295.423
256.185
256.618
266.824
286.967
317.004
374.984
482.797
531.031
517.857
488.696
450.168
435.473
420.583
412.271
403.814
391.695
386.905
387.445
391.161
396.754
400.951
406.328
413.501
419.645
426.635
432.823
429.943
416.7
410.593
412.332
418.705
432.343
439.591
441.677
439.657
434.011
428.698
425.548
425.217
428.351
436.393
448.355
462.117
474.27
483.854
490.806
495.364
497.926
499.093
499.535
499.833
500.223
500.81
501.486
502.218
502.882
503.509
504.021
504.521
504.907
505.341
505.636
506.027
506.38
506.596
281.454
306.172
294.227
276.683
273.509
277.31
286.284
294.635
300.854
305.311
308.457
310.605
310.919
310.432
307.915
302.491
292.583
276.68
261.559
317.86
473.271
563.099
537.507
497.856
485.15
509.287
537.977
533.016
512.337
483.778
448.046
375.522
312.538
259.364
247.892
253.235
263.547
242.187
232.801
303.598
318.636
345.194
365.171
395.273
430.628
460.843
536.706
538.692
468.953
355.741
279.272
251.836
262.477
283.703
303.601
340.38
406.405
507.718
573.929
584.599
552.154
522.46
465.251
441.605
420.802
415.998
413.216
404.548
401.904
403.904
409.624
418.262
424.676
435.225
449.6
463.283
469.066
458.73
434.96
404.875
391.306
390.086
400.6
420.158
433.235
442.216
444.192
439.703
432.019
426.741
425.402
428.353
437.147
450.359
464.876
477.023
486.189
492.564
496.42
498.23
498.771
498.828
498.945
499.299
499.933
500.671
501.459
502.158
502.808
503.332
503.844
504.238
504.685
504.984
505.393
505.737
505.981
281.462
306.165
294.182
276.583
273.376
277.157
286.09
294.333
300.484
304.839
307.773
309.834
309.747
308.961
305.916
299.544
288.2
269.43
251.97
326.835
480.178
538.543
502.455
458.786
443.885
493.632
508.696
456.429
386.198
315.733
235.876
206.67
209.861
211.548
226.024
248.11
253.355
214.625
256.587
329.367
339.996
317.824
395.851
473.807
495.076
486.962
475.405
373.966
285.394
262.28
250.902
248.328
277.214
301.178
325.697
383.046
481.777
581.211
626.805
591.695
558.771
530.929
452.447
403.589
335.665
317.516
321.523
326.139
335.562
349.984
370.99
389.266
404.491
427.611
450.865
477.747
496.41
486.765
444.492
393.125
369.577
370.029
390.108
415.301
435.136
450.206
453.798
449.118
440.053
433.829
432.536
436.3
445.779
458.543
471.91
482.275
489.603
494.515
497.212
498.138
498.136
497.93
497.95
498.325
499.051
499.864
500.707
501.437
502.108
502.644
503.169
503.572
504.034
504.34
504.769
505.106
505.378
281.473
306.137
294.127
276.501
273.272
277.034
285.937
294.108
300.2
304.489
307.269
309.216
308.944
307.858
304.417
297.363
285.004
264.105
246.074
333.254
480.923
523.085
454.457
415.059
400.247
474.954
480.101
377.041
272.736
191.458
150.988
164.401
159.475
160.724
201.412
233.575
248.361
208.769
296.057
349.726
339.038
469.552
503.075
529.244
510.783
354.564
271.135
259.498
232.375
221.565
215.14
217.861
241.556
267.195
285.747
386.242
519.245
616.163
650.243
585.153
547.804
514.087
380.424
353.876
238.172
207.614
208.084
214.527
235.855
258.469
294.242
319.424
354.619
402.303
439.774
474.943
509.747
502.005
450.755
381.702
351.294
356.894
386.3
415.318
439.361
455.142
459.23
454.918
446.149
440.451
439.735
444.196
453.78
465.807
478.03
486.72
492.369
495.77
497.282
497.475
497.157
496.84
496.902
497.394
498.229
499.12
500.012
500.769
501.458
502.006
502.545
502.96
503.437
503.75
504.201
504.53
504.833
281.475
306.131
294.115
276.467
273.206
276.95
285.829
293.961
300.012
304.258
306.939
308.791
308.421
307.141
303.421
295.947
282.925
260.682
242.884
336.196
476.322
511.161
438.453
399.712
385.168
429.275
222.887
243.949
220.807
325.118
365.88
383.56
523.344
510.421
516.018
217.85
359.986
535.537
631.732
658.153
573.094
531.038
481.167
337.983
298.177
339.796
412.215
466.204
519.136
515.626
458.652
373.988
338.44
350.46
385.04
414.987
440.111
455.984
460.547
457.619
450.082
444.949
444.47
448.974
458.221
469.513
481.12
489.203
493.824
496.224
496.961
496.783
496.252
495.952
496.089
496.7
497.621
498.572
499.499
500.275
500.977
501.534
502.085
502.51
502.998
503.318
503.783
504.114
504.431
281.472
306.136
294.12
276.435
273.106
276.822
285.663
293.748
299.735
303.915
306.459
308.154
307.645
306.089
301.94
293.876
279.877
255.71
237.83
338.381
470.065
494.168
402.133
365.074
351.326
378.73
209.46
240.249
234.515
343.887
382.716
491.842
550.82
513.635
509.776
189.726
350.468
556.721
648.059
662.661
554.754
510.301
451.781
308.537
204.39
224.506
288.038
404.205
510.46
523.488
462.088
362.68
319.265
346.061
381.655
411.445
437.604
454.376
460.869
460.56
455.874
451.898
451.48
455.387
463.71
473.571
483.983
491.328
495.014
496.145
495.981
495.245
494.579
494.382
494.71
495.549
496.621
497.669
498.651
499.457
500.181
500.755
501.327
501.769
502.278
502.614
503.097
503.441
503.77
281.476
306.111
294.09
276.375
272.966
276.647
285.441
293.468
299.369
303.457
305.841
307.315
306.631
304.725
300.015
291.213
276.001
249.626
231.654
339.125
459.159
474.986
377.91
340.241
326.199
326.869
215.006
250.34
233.069
326.543
376.22
532.383
560.824
513.958
509.295
193.545
355.643
580.387
661.395
660.609
522.849
473.796
414.373
288.642
213.33
218.951
231.793
272.588
423.113
502.094
450.763
325.084
307.622
342.892
372.549
400.723
427.346
447.389
459.4
463.301
463.04
461.053
460.281
462.412
467.97
476.13
485.386
491.653
493.919
493.846
492.846
491.842
491.433
491.638
492.514
493.726
495.045
496.231
497.292
498.142
498.904
499.512
500.122
500.597
501.144
501.505
502.025
502.385
502.743
281.482
306.081
294.045
276.297
272.803
276.445
285.173
293.132
298.925
302.892
305.107
306.294
305.398
303.089
297.723
288.109
271.601
243.15
223.55
333.098
444.59
454.776
349.893
306.675
287.164
281.96
220.573
256.113
253.346
246.662
390.011
524.753
538.618
502.529
516.173
242.207
385.326
606.007
676.482
633.232
490.588
445.706
407.615
306.818
230.241
243.674
239.234
247.079
276.844
371.211
360.504
290.378
290.109
320.945
348.767
380.522
417.203
443.618
459.028
467.542
471.078
471.555
469.979
468.801
470.132
475.267
482.398
487.092
488.404
487.86
486.713
486.212
486.517
487.671
489.339
491.07
492.717
494.088
495.258
496.18
497.01
497.679
498.356
498.886
499.493
499.897
500.473
500.857
501.268
281.493
306.047
293.982
276.182
272.594
276.19
284.828
292.686
298.344
302.126
304.151
304.928
303.759
300.935
294.743
284.154
266.303
235.916
212.172
318.306
430.14
441.214
334.709
290.496
265.909
251.334
206.602
247.141
248.163
293.652
460.917
459.773
482.619
457.248
491.153
266.162
386.846
608.197
675.621
615.011
480.41
438.856
422.864
350.163
232.406
241.617
225.526
350.799
389.601
388.717
341.27
302.369
274.476
270.518
305.54
360.809
412.209
446.472
465.414
475.573
479.791
479.764
476.695
472.356
469.804
470.668
473.393
474.951
475.33
475.411
475.863
477.125
479.154
481.605
484.164
486.513
488.588
490.249
491.639
492.737
493.728
494.537
495.346
495.986
496.701
497.186
497.868
498.289
498.816
281.501
306.026
293.934
276.052
272.407
275.961
284.524
292.267
297.81
301.398
303.27
303.647
302.237
298.952
292.04
280.685
262.113
231.197
200.769
291.102
418.11
440.042
346.892
296.459
273.279
261.12
177.855
209.177
263.765
468.208
538.356
410.06
416.376
414.172
446.766
265.746
354.612
592.051
667.052
618.295
490.375
458.437
453.829
404.735
249.634
251.452
233.892
321.919
387.228
411.096
365.012
290.527
246.793
240.381
294.174
364.14
426.619
464.492
480.452
483.912
483.818
481.287
474.711
467.538
463.407
461.653
459.911
459.088
459.669
461.913
465.063
468.504
471.9
475.139
478.23
480.989
483.425
485.411
487.104
488.464
489.687
490.687
491.667
492.447
493.3
493.887
494.711
495.166
495.858
281.508
306.015
293.9
275.95
272.291
275.814
284.331
291.982
297.453
300.912
302.679
302.793
301.223
297.629
290.263
278.462
259.667
229.302
194.859
262.746
407.266
442.541
368.199
314.329
294.511
290.047
169.485
248.912
405.158
538.401
553.099
397.737
343.609
379.887
407.43
281.597
352.675
577.864
657.979
623.532
510.514
492.274
492.229
453.652
272.094
272.365
227.496
284.762
347.22
372.919
369.938
294.86
246.765
248.332
303.769
376.265
441.202
480.083
489.917
486.521
475.953
465.228
456.244
450.315
448.369
447.836
447.053
447.43
449.938
454.017
458.509
462.773
466.637
470.164
473.489
476.488
479.191
481.441
483.388
484.963
486.374
487.526
488.646
489.54
490.507
491.179
492.122
492.599
493.446
281.516
306.007
293.867
275.867
272.202
275.71
284.183
291.772
297.169
300.552
302.211
302.157
300.446
296.629
288.892
276.885
257.819
228.531
192.686
232.222
390.196
446.469
400.646
344.803
329.641
329.853
272.03
380.616
471.184
553.104
534.663
398.414
283.039
358.583
388.351
303.466
352.623
563.838
648.434
632.573
530.662
514.788
519.057
489.115
286.872
291.392
221.435
312.933
346.156
362.524
364.378
306.034
259.248
260.642
310.946
383.115
448.693
486.213
492.924
481.824
460.222
443.593
433.641
430.451
431.509
434.286
436.637
439.797
444.072
448.957
453.779
458.194
462.202
465.87
469.36
472.561
475.495
477.974
480.135
481.89
483.461
484.744
485.986
486.98
488.049
488.798
489.848
490.348
491.336
281.526
305.982
293.815
275.802
272.128
275.629
284.064
291.627
296.954
300.297
301.858
301.724
299.877
295.899
287.901
275.789
256.505
228.214
192.331
210.495
369.643
446.911
431.74
372.958
358.803
394.001
435.775
456.775
488.415
546.829
505.109
385.461
247.839
355.858
398.715
320.841
353.114
553.148
640.8
641.562
545.886
530.441
544.414
515.005
298.633
299.597
236.983
328.515
351.319
362.784
361.6
314.101
272.229
269.165
315.608
385.385
450.813
486.758
489.356
472.332
446.375
427.553
418.083
416.586
419.636
425.314
430.552
435.622
440.729
445.721
450.374
454.651
458.653
462.427
466.063
469.429
472.543
475.189
477.506
479.394
481.086
482.471
483.809
484.884
486.038
486.851
487.993
488.515
489.621
281.527
305.977
293.804
275.781
272.08
275.573
283.98
291.532
296.817
300.132
301.621
301.443
299.511
295.422
287.275
275.074
255.717
228
193.19
195.059
352.802
445.779
447.879
400.7
381.767
417.504
461.702
347.622
311.913
311.403
308.433
313.835
339.118
391.529
427.369
472.893
465.329
489.367
529.455
488.629
381.33
236.375
334.2
383.194
358.837
329.779
325.832
288.306
159.761
102.496
101.414
108.81
126.482
203.249
318.355
352.113
545.36
637.379
645.2
553.24
538.187
560.03
539.544
400.645
237.762
235.505
277.06
289.877
235.768
211.875
199.653
231.178
304.772
297.712
264.475
332.579
353.061
366.023
361.67
319.429
280.439
273.469
316.778
384.684
448.194
480.476
481.03
462.235
436.35
418.199
409.969
409.351
413.563
420.733
427.405
433.367
438.767
443.655
448.091
452.211
456.168
460.004
463.763
467.257
470.496
473.255
475.677
477.654
479.43
480.884
482.289
483.422
484.636
485.496
486.7
487.247
488.428
281.524
305.985
293.813
275.772
272.009
275.486
283.855
291.394
296.62
299.893
301.276
301.035
298.982
294.73
286.386
274.016
254.617
227.612
195.345
177.425
302.071
440.186
481.13
439.198
420.683
441.988
476.23
455.509
457.461
463.149
482.377
495.082
515
513.464
505.095
488.79
438.528
488.389
515.467
466.807
378.279
261.433
250.723
315.328
333.234
335.669
341.629
324.178
221.539
138.566
133.145
143.941
152.367
184.548
278.715
338.187
523.727
628.87
648.011
567.466
555.273
584.863
572.588
454.298
258.36
307.432
334.158
326.295
272.724
251.605
226.572
278.975
296.952
267.87
293.211
335.688
358.259
374.962
361.944
325.533
290.738
276.26
313.954
377.162
435.373
462.028
460.435
441.739
419.932
405.728
400.856
402.371
408.502
416.53
424.077
430.621
436.058
440.607
444.622
448.43
452.267
456.168
460.118
463.843
467.293
470.23
472.812
474.927
476.832
478.397
479.91
481.136
482.445
483.383
484.681
485.279
486.566
281.525
305.965
293.791
275.743
271.911
275.367
283.697
291.21
296.373
299.589
300.841
300.524
298.319
293.851
285.275
272.64
253.245
226.962
198.378
174.347
224.631
399.939
480.696
507.677
521.562
535.169
548.042
569.85
578.004
589.289
614.026
613.747
593.967
540.208
456.699
389.29
414.758
489.608
481.733
450.689
400.075
362.083
325.835
314.932
315.625
320.115
333.536
306.001
189.255
165.79
159.679
168.5
190.038
193.846
206.195
284.751
477.253
608.939
647.295
580.802
571.781
615.118
603.972
522.287
307.531
318.955
352.624
348.802
308.546
284.144
258.056
251.972
247.585
245.869
313.829
344.023
368.689
388.634
365.601
327.794
288.4
263.814
289.806
345.483
393.247
413.675
413.789
404.864
396.262
393.042
394.067
399.056
406.985
415.112
422.36
428.288
432.892
436.58
439.863
443.172
446.779
450.696
454.836
458.842
462.604
465.824
468.663
470.99
473.094
474.826
476.502
477.866
479.323
480.377
481.824
482.497
483.949
281.53
305.942
293.76
275.7
271.807
275.233
283.524
290.987
296.096
299.227
300.34
299.933
297.538
292.848
283.973
271.071
251.499
225.85
199.813
184.802
178.208
262.454
399.614
470.613
509.705
539.046
563.916
600.987
641.274
658.567
630.728
539.668
419.491
327.504
325.588
354.327
437.852
471.226
454.661
449.263
532.202
563.87
552.893
523.558
484.918
381.955
269.75
205.972
179.895
163.388
152.953
181.581
228.671
227.53
224.228
220.587
334.452
550.983
630.794
602.363
604.976
640.833
614.325
535.775
319.891
341.468
388.479
393.061
340.276
298.999
266.704
255.987
259.632
293.865
332.217
358.126
380.014
388.885
364.997
323.289
266.078
215.087
212.958
256.918
303.993
336.563
358.486
372.257
380.406
386.319
392.518
399.881
408.003
415.736
421.943
426.318
429.285
431.561
433.808
436.482
439.801
443.684
447.968
452.234
456.309
459.843
462.995
465.605
467.991
469.972
471.905
473.481
475.174
476.395
478.074
478.851
480.54
281.537
305.916
293.72
275.634
271.688
275.075
283.328
290.702
295.766
298.774
299.731
299.2
296.576
291.591
282.377
269.003
249.058
223.107
199.493
191.449
191.042
230.698
329.421
391.448
431.293
469.051
492.445
528.528
567.698
592.535
579.795
529.009
459.071
389.311
369.001
389.602
426.547
423.574
437.909
575.021
682.425
671.026
669.512
655.219
616.101
454.522
286.635
277.192
261.737
261.728
272.464
286.402
287.654
288.061
288.975
286.911
274.278
319.048
541.346
585.693
594.033
608.303
578.353
512.065
330.451
294.608
366.133
382.666
341.166
291.819
271.221
260.694
259.927
265.836
297.331
352.316
379.62
385.118
363.384
296.19
256.879
237.091
243.469
270.015
294.602