/*--------------------------------*- C++ -*----------------------------------*\
| =========                 |                                                 |
| \\      /  F ield         | OpenFOAM: The Open Source CFD Toolbox           |
|  \\    /   O peration     | Version:  v2006                                 |
|   \\  /    A nd           | Website:  www.openfoam.com                      |
|    \\/     M anipulation  |                                                 |
\*---------------------------------------------------------------------------*/
FoamFile
{
    version     2.0;
    format      ascii;
    class       volScalarField;
    location    "0.59";
    object      k;
}
// * * * * * * * * * * * * * * * * * * * * * * * * * * * * * * * * * * * * * //

dimensions      [0 2 -2 0 0 0 0];


internalField   nonuniform List<scalar> 
374400
(
0.0970821
0.116326
0.108132
0.0959885
0.093886
0.096838
0.104566
0.11371
0.121846
0.128703
0.134743
0.140257
0.145451
0.150384
0.155243
0.160075
0.164935
0.169789
0.174389
0.178463
0.181757
0.184246
0.186199
0.187606
0.188739
0.189596
0.190167
0.191029
0.192189
0.193649
0.195749
0.197912
0.199492
0.200771
0.201742
0.202388
0.203364
0.20468
0.206332
0.20868
0.211051
0.212763
0.214131
0.215164
0.215846
0.216877
0.218253
0.219978
0.221699
0.223077
0.22479
0.226503
0.22786
0.228875
0.229543
0.230547
0.231883
0.233536
0.235834
0.238084
0.23968
0.240936
0.241876
0.242493
0.243419
0.244652
0.246175
0.248294
0.250374
0.251856
0.253022
0.2539
0.254475
0.25534
0.256493
0.257924
0.259915
0.262734
0.266648
0.271624
0.277249
0.283086
0.288967
0.294642
0.299642
0.303733
0.307034
0.309709
0.311905
0.313731
0.315269
0.316584
0.317718
0.3187
0.319549
0.320277
0.320899
0.321428
0.321874
0.322249
0.322559
0.322811
0.323011
0.323167
0.323289
0.323383
0.323457
0.323514
0.323561
0.323599
0.323635
0.323664
0.323697
0.323726
0.323745
0.323914
0.323657
0.0970832
0.116324
0.108128
0.0959816
0.0938745
0.0968241
0.104548
0.113688
0.121824
0.128682
0.134729
0.140251
0.145456
0.150404
0.155281
0.160137
0.165025
0.169911
0.174544
0.178649
0.181967
0.184475
0.186441
0.187859
0.188999
0.189861
0.190436
0.191303
0.192469
0.193937
0.196048
0.19822
0.199807
0.20109
0.202064
0.202712
0.203691
0.20501
0.206666
0.209019
0.211393
0.213106
0.214474
0.215507
0.216189
0.217219
0.218595
0.220319
0.222037
0.223413
0.225122
0.226831
0.228184
0.229196
0.229862
0.230862
0.232193
0.23384
0.236128
0.238367
0.239955
0.241203
0.242138
0.242751
0.243671
0.244896
0.246409
0.248513
0.250579
0.252051
0.253208
0.254079
0.254649
0.255507
0.25665
0.258069
0.260044
0.262839
0.266725
0.271665
0.277252
0.283055
0.288912
0.294575
0.299573
0.303669
0.30698
0.309669
0.311879
0.31372
0.315275
0.316607
0.317758
0.318755
0.319616
0.320356
0.320988
0.321525
0.321978
0.322357
0.322669
0.32292
0.323119
0.323274
0.323394
0.323486
0.323558
0.323613
0.32366
0.323697
0.323732
0.323762
0.323795
0.323824
0.323843
0.324013
0.323757
0.097085
0.116317
0.108116
0.0959613
0.0938441
0.0967901
0.104507
0.113642
0.121776
0.128637
0.134696
0.140235
0.145465
0.150444
0.155362
0.16027
0.165221
0.170179
0.174885
0.179059
0.182435
0.184984
0.186981
0.18842
0.189576
0.19045
0.191033
0.191912
0.193092
0.194578
0.196712
0.198905
0.200505
0.201799
0.20278
0.203432
0.204418
0.205744
0.207409
0.209771
0.212151
0.213866
0.215235
0.216268
0.21695
0.217979
0.219353
0.221074
0.222787
0.224158
0.225859
0.227559
0.228903
0.229908
0.23057
0.231562
0.232883
0.234515
0.236779
0.238992
0.24056
0.241792
0.242714
0.24332
0.244228
0.245436
0.246928
0.248999
0.251029
0.252475
0.253612
0.254468
0.255028
0.255872
0.256995
0.258389
0.260328
0.263072
0.266882
0.271729
0.277215
0.282923
0.288703
0.294312
0.299283
0.303375
0.306699
0.30941
0.311651
0.313528
0.31512
0.316489
0.317676
0.318704
0.319594
0.320359
0.32101
0.321563
0.322027
0.322412
0.322727
0.322978
0.323174
0.323323
0.323438
0.323524
0.323591
0.32364
0.323682
0.323716
0.32375
0.323777
0.323809
0.323838
0.323857
0.324026
0.32377
0.0970877
0.116307
0.108098
0.0959275
0.0937918
0.0967305
0.104435
0.113559
0.121685
0.128548
0.134621
0.140183
0.145448
0.150472
0.155452
0.16044
0.165491
0.170564
0.175393
0.179682
0.183151
0.18577
0.18782
0.189295
0.19048
0.191375
0.191971
0.19287
0.194076
0.195594
0.197768
0.199999
0.201624
0.202935
0.203928
0.204588
0.205585
0.206924
0.208604
0.210983
0.213374
0.215095
0.216466
0.2175
0.218181
0.21921
0.220581
0.222295
0.224
0.225363
0.227051
0.228736
0.230066
0.231059
0.231712
0.232691
0.233992
0.235599
0.237826
0.239999
0.241536
0.242741
0.243641
0.244231
0.245116
0.246292
0.247744
0.249761
0.251734
0.253138
0.25424
0.255068
0.255609
0.256424
0.257509
0.258855
0.260728
0.263381
0.267072
0.271771
0.277099
0.28266
0.288325
0.293862
0.298801
0.302897
0.306249
0.309006
0.311299
0.31323
0.314879
0.316305
0.317545
0.318624
0.319557
0.320359
0.321043
0.32162
0.322101
0.322494
0.32281
0.323056
0.323241
0.32338
0.323482
0.323555
0.323609
0.323649
0.323684
0.323711
0.32374
0.323764
0.323795
0.323823
0.323842
0.324014
0.32376
0.0970923
0.116292
0.108069
0.0958735
0.0937074
0.0966334
0.104316
0.113418
0.121528
0.128385
0.134469
0.140055
0.14536
0.150443
0.155503
0.160602
0.165794
0.171036
0.176048
0.180514
0.184129
0.186858
0.18899
0.190523
0.191753
0.192681
0.193298
0.194229
0.195476
0.197043
0.199282
0.20157
0.203232
0.20457
0.205583
0.206255
0.207269
0.20863
0.210333
0.212738
0.215146
0.216873
0.218247
0.21928
0.219961
0.220988
0.222355
0.224063
0.225755
0.227106
0.228776
0.230436
0.231744
0.23272
0.23336
0.234321
0.235596
0.237168
0.239339
0.241447
0.242934
0.244099
0.24497
0.24554
0.246396
0.247533
0.248934
0.250873
0.25276
0.254101
0.255154
0.255946
0.256463
0.257245
0.258284
0.259572
0.261361
0.263887
0.267394
0.271864
0.276946
0.282282
0.287774
0.293202
0.298095
0.302199
0.305593
0.308412
0.310781
0.312798
0.314532
0.316039
0.317355
0.318502
0.319497
0.320351
0.321077
0.321686
0.322187
0.322593
0.322911
0.323152
0.323329
0.323455
0.323543
0.323601
0.323642
0.32367
0.323694
0.323713
0.323736
0.323757
0.323785
0.323813
0.323832
0.324003
0.323751
0.0970994
0.116269
0.108024
0.0957917
0.0935779
0.0964836
0.10413
0.113195
0.121271
0.128106
0.13419
0.139793
0.145135
0.150281
0.155438
0.160676
0.166058
0.171538
0.176816
0.181545
0.185384
0.188284
0.190546
0.19217
0.193471
0.19445
0.195102
0.196082
0.197394
0.19904
0.201381
0.203762
0.205485
0.206868
0.207911
0.208603
0.209645
0.211039
0.21278
0.215229
0.217667
0.219409
0.220789
0.221824
0.222506
0.22353
0.224892
0.226589
0.228263
0.229597
0.231239
0.232867
0.234146
0.235097
0.235719
0.23665
0.237883
0.2394
0.241494
0.243518
0.244941
0.246049
0.246872
0.24741
0.248215
0.249282
0.250594
0.252414
0.254183
0.255435
0.25641
0.25714
0.257615
0.258329
0.259278
0.260456
0.262097
0.264426
0.267674
0.271828
0.276574
0.281616
0.286903
0.292231
0.297113
0.301267
0.304741
0.307655
0.310119
0.312231
0.314065
0.315673
0.317085
0.318321
0.319397
0.320324
0.321111
0.321765
0.322294
0.322711
0.323028
0.323257
0.323415
0.323519
0.32358
0.323614
0.323632
0.323643
0.323654
0.323666
0.323685
0.323702
0.323731
0.32376
0.323781
0.323957
0.323709
0.0971099
0.116236
0.10796
0.0956722
0.0933879
0.0962613
0.103849
0.112854
0.12087
0.127655
0.133715
0.139312
0.144678
0.149879
0.155137
0.16054
0.166159
0.171962
0.177619
0.182735
0.186914
0.190076
0.192541
0.194306
0.195718
0.196779
0.197484
0.198543
0.199956
0.201722
0.20422
0.206741
0.208555
0.210005
0.211094
0.211814
0.212897
0.21434
0.216135
0.21864
0.221112
0.222867
0.224251
0.225285
0.225965
0.226984
0.228336
0.230013
0.231657
0.232961
0.234558
0.236132
0.237362
0.238274
0.23887
0.239762
0.240939
0.242384
0.24436
0.24625
0.247572
0.2486
0.249367
0.249868
0.25062
0.251615
0.252835
0.254505
0.256105
0.257235
0.258117
0.258782
0.259216
0.259872
0.260744
0.261821
0.263304
0.26538
0.268247
0.271906
0.276141
0.28073
0.285704
0.290884
0.295748
0.299972
0.303565
0.306618
0.309233
0.311494
0.313466
0.315195
0.316725
0.318077
0.319259
0.320274
0.321127
0.321829
0.322389
0.322821
0.323137
0.323356
0.323495
0.323571
0.323601
0.323607
0.323601
0.323593
0.32359
0.323593
0.323605
0.323622
0.323651
0.323682
0.323707
0.323888
0.323644
0.0971239
0.11619
0.107872
0.0955057
0.0931197
0.0959464
0.103447
0.112356
0.120272
0.126964
0.132952
0.138498
0.143847
0.14907
0.154412
0.159983
0.165889
0.172109
0.1783
0.183998
0.1887
0.192279
0.195072
0.197069
0.198662
0.199855
0.200648
0.201835
0.203412
0.205375
0.208125
0.210869
0.212826
0.21438
0.21554
0.216305
0.21745
0.218967
0.220843
0.223435
0.225964
0.227741
0.229133
0.230167
0.230844
0.231856
0.233193
0.234842
0.236447
0.237711
0.239246
0.240751
0.241919
0.242779
0.243338
0.24417
0.245264
0.2466
0.24843
0.250171
0.251378
0.252302
0.252981
0.25342
0.254071
0.254929
0.255975
0.257419
0.258798
0.259758
0.260483
0.261017
0.261358
0.261864
0.262532
0.263358
0.264512
0.266171
0.268491
0.271476
0.274994
0.279048
0.283765
0.288952
0.293961
0.298388
0.302176
0.305392
0.308125
0.310476
0.312551
0.314411
0.316092
0.317603
0.318938
0.320086
0.321045
0.321826
0.322436
0.322889
0.323203
0.323397
0.323496
0.323524
0.323512
0.323475
0.323437
0.323408
0.323392
0.323391
0.323402
0.323425
0.32346
0.3235
0.323538
0.323733
0.323502
0.0971432
0.116129
0.10775
0.0952844
0.0927569
0.0955161
0.102893
0.111659
0.119416
0.125951
0.131791
0.137202
0.142453
0.147623
0.152979
0.158678
0.164882
0.171634
0.178543
0.185093
0.190642
0.194879
0.198204
0.200587
0.202481
0.203895
0.204832
0.20623
0.208078
0.210364
0.213526
0.216624
0.218804
0.220511
0.22177
0.222596
0.223823
0.225432
0.227403
0.230091
0.232663
0.234445
0.235823
0.236836
0.237496
0.238478
0.239765
0.241336
0.242839
0.244014
0.245418
0.246775
0.247814
0.248574
0.249066
0.249798
0.250756
0.251919
0.253477
0.254918
0.255913
0.256682
0.257259
0.257637
0.258211
0.258972
0.259902
0.261149
0.262289
0.263086
0.263701
0.264167
0.264471
0.264934
0.265537
0.266251
0.267166
0.268335
0.2698
0.271616
0.273918
0.276999
0.281197
0.286254
0.291412
0.296121
0.300218
0.303685
0.306576
0.309045
0.311268
0.313334
0.315244
0.316966
0.318477
0.319764
0.320827
0.321681
0.322341
0.322818
0.323132
0.323304
0.323362
0.323348
0.323282
0.323201
0.323133
0.323085
0.323064
0.323065
0.323087
0.323121
0.323177
0.323233
0.32329
0.323503
0.3233
0.0971665
0.116054
0.107608
0.0950079
0.0923019
0.0949765
0.102184
0.110763
0.118291
0.124583
0.130169
0.135328
0.140328
0.145294
0.15051
0.156198
0.162621
0.169912
0.177702
0.185409
0.192089
0.197433
0.201617
0.204613
0.20699
0.208759
0.209928
0.211669
0.213957
0.216777
0.220621
0.224328
0.22691
0.228891
0.23032
0.231249
0.232615
0.234365
0.23648
0.239258
0.241817
0.24357
0.244918
0.245908
0.246553
0.247511
0.248765
0.250288
0.251728
0.252842
0.254139
0.255362
0.25627
0.256916
0.257326
0.25792
0.258693
0.259624
0.260907
0.262124
0.262966
0.263607
0.264074
0.264371
0.264805
0.265372
0.266044
0.266966
0.26779
0.268307
0.268616
0.268797
0.268891
0.268991
0.269108
0.26927
0.269487
0.269825
0.270064
0.270177
0.270712
0.272749
0.277057
0.28268
0.28857
0.293897
0.298191
0.301617
0.304461
0.30694
0.309286
0.311572
0.313745
0.315727
0.317471
0.318957
0.320184
0.321164
0.321915
0.322444
0.322768
0.322916
0.322932
0.32286
0.322732
0.322614
0.322521
0.322474
0.322471
0.322497
0.322563
0.322636
0.32274
0.322829
0.322926
0.323183
0.323037
0.0971913
0.115975
0.107442
0.0947041
0.0917897
0.0943633
0.101373
0.109729
0.116946
0.122942
0.128139
0.132923
0.13746
0.142007
0.146818
0.152163
0.1585
0.166041
0.174593
0.183613
0.191951
0.198647
0.204148
0.208178
0.211421
0.213858
0.215472
0.217889
0.221045
0.22491
0.229965
0.234421
0.23729
0.239358
0.240788
0.2417
0.242987
0.244587
0.246453
0.248836
0.250973
0.252373
0.253424
0.25419
0.254688
0.25543
0.256412
0.257623
0.25877
0.25966
0.260672
0.261578
0.2622
0.262616
0.262873
0.263251
0.263698
0.264163
0.26465
0.265048
0.265366
0.265683
0.266001
0.266226
0.266636
0.267254
0.268116
0.269479
0.270907
0.272013
0.272942
0.273632
0.274085
0.274767
0.275542
0.276134
0.276398
0.27607
0.274383
0.271405
0.268684
0.268777
0.271735
0.277961
0.284725
0.290721
0.295223
0.298598
0.301415
0.303956
0.306442
0.308969
0.31145
0.313742
0.31575
0.317459
0.318886
0.32004
0.320937
0.321581
0.321988
0.322172
0.322183
0.322081
0.321924
0.321795
0.321721
0.321711
0.321761
0.321857
0.322004
0.322138
0.322317
0.322463
0.322624
0.322946
0.322885
0.0972181
0.115893
0.107261
0.0943992
0.0912373
0.0937151
0.100498
0.108615
0.115461
0.121114
0.125784
0.130074
0.133946
0.137762
0.141786
0.146276
0.151894
0.159003
0.167865
0.178052
0.188427
0.197413
0.205283
0.210945
0.215499
0.218787
0.220894
0.223912
0.227465
0.231424
0.235102
0.237064
0.237805
0.238016
0.238066
0.238065
0.238065
0.238078
0.238155
0.238555
0.239516
0.240577
0.241609
0.24241
0.242949
0.243747
0.244795
0.245903
0.246795
0.247089
0.246939
0.246416
0.24544
0.244455
0.243736
0.242555
0.241052
0.239529
0.238605
0.23859
0.23899
0.240075
0.241128
0.241814
0.242882
0.244342
0.246009
0.248313
0.250988
0.252989
0.254526
0.255639
0.256339
0.25733
0.258724
0.260662
0.263442
0.265823
0.265909
0.262874
0.258968
0.259365
0.264173
0.272889
0.281329
0.287779
0.292003
0.294697
0.297104
0.299507
0.301986
0.304722
0.307568
0.310294
0.312723
0.31483
0.316628
0.318117
0.319291
0.320152
0.320735
0.321039
0.321116
0.321052
0.320914
0.320819
0.32081
0.32088
0.321054
0.321262
0.321527
0.321759
0.322042
0.322262
0.32252
0.3229
0.322949
0.0972418
0.115816
0.107084
0.0941105
0.0906702
0.0930766
0.0996009
0.107504
0.113945
0.119178
0.123306
0.126921
0.130001
0.132748
0.135548
0.138515
0.142434
0.147885
0.155738
0.166392
0.179418
0.19051
0.200265
0.207622
0.212371
0.215261
0.216983
0.219257
0.221618
0.224847
0.224434
0.222303
0.219193
0.215926
0.213393
0.211619
0.209114
0.205919
0.202919
0.200036
0.199
0.199512
0.20065
0.202181
0.203386
0.205567
0.209123
0.214304
0.219511
0.223448
0.226926
0.228516
0.228399
0.227974
0.2273
0.225767
0.223242
0.219351
0.213575
0.209717
0.208648
0.208863
0.209702
0.211261
0.214742
0.22002
0.229057
0.245047
0.260106
0.26989
0.276623
0.280623
0.28307
0.285929
0.288272
0.289248
0.289026
0.286822
0.276587
0.258522
0.244569
0.242646
0.249322
0.262748
0.27447
0.282138
0.285932
0.287498
0.288752
0.290879
0.293643
0.296919
0.300683
0.304504
0.307923
0.310814
0.313222
0.315207
0.316795
0.318023
0.318963
0.319574
0.319873
0.319911
0.319859
0.319823
0.319889
0.320083
0.320396
0.320735
0.321135
0.32148
0.321878
0.322182
0.322542
0.322964
0.323139
0.0972638
0.115749
0.106946
0.0938337
0.0901781
0.0925016
0.0987924
0.106513
0.112532
0.117401
0.121
0.123888
0.126144
0.127736
0.128916
0.129902
0.131077
0.133445
0.138563
0.149702
0.163308
0.179116
0.195759
0.213321
0.230075
0.245946
0.260067
0.285079
0.325466
0.366878
0.385433
0.380864
0.371176
0.35727
0.346415
0.338947
0.328411
0.315023
0.301068
0.282391
0.268127
0.260521
0.258142
0.258755
0.25998
0.263544
0.271413
0.282231
0.290298
0.294876
0.295741
0.294187
0.291022
0.287818
0.285849
0.282609
0.278518
0.272516
0.261548
0.25846
0.26031
0.266037
0.272897
0.277846
0.28182
0.28171
0.27192
0.247774
0.241688
0.242956
0.247884
0.254848
0.259548
0.266211
0.273719
0.281229
0.288133
0.290355
0.282944
0.255819
0.232944
0.227264
0.234797
0.250901
0.263909
0.271588
0.274759
0.275248
0.275323
0.276423
0.279336
0.283193
0.287849
0.293015
0.297776
0.30177
0.305146
0.308055
0.310594
0.312817
0.314771
0.316298
0.317309
0.317827
0.318089
0.318274
0.31856
0.318935
0.319435
0.319938
0.320494
0.320962
0.321479
0.32186
0.322317
0.322773
0.323057
0.0972857
0.115691
0.106875
0.0935748
0.0898238
0.0920407
0.0981961
0.10568
0.111475
0.115933
0.119168
0.121482
0.122862
0.123603
0.123185
0.122184
0.120431
0.118512
0.120422
0.129818
0.150776
0.193413
0.2857
0.372639
0.440338
0.487996
0.516253
0.559862
0.594449
0.613149
0.597623
0.561977
0.526889
0.496661
0.474145
0.459319
0.438179
0.410195
0.376895
0.328483
0.286661
0.266038
0.258636
0.259545
0.261898
0.270104
0.288792
0.325511
0.364291
0.395186
0.417329
0.41334
0.400931
0.381972
0.368142
0.346445
0.317077
0.284004
0.231002
0.149043
0.101268
0.0969594
0.1016
0.109363
0.111549
0.109554
0.0974693
0.0900666
0.0914374
0.0964515
0.103352
0.109045
0.112924
0.119375
0.12869
0.142534
0.163822
0.192148
0.210589
0.205022
0.197466
0.205262
0.227291
0.24812
0.260617
0.264773
0.264252
0.261307
0.25785
0.256137
0.256692
0.259653
0.264147
0.269578
0.275781
0.282203
0.288452
0.294311
0.299726
0.304647
0.308923
0.312217
0.314424
0.315673
0.316347
0.316768
0.317223
0.317744
0.318386
0.319017
0.31969
0.320243
0.320841
0.321269
0.321788
0.322255
0.322601
0.0972976
0.115665
0.106825
0.0934004
0.0895647
0.0917155
0.0977937
0.105073
0.110743
0.114906
0.117812
0.119816
0.120528
0.120387
0.119222
0.116434
0.112337
0.106095
0.104556
0.114805
0.167514
0.319713
0.452792
0.510037
0.545685
0.567085
0.582545
0.607736
0.607246
0.591253
0.545469
0.503574
0.472453
0.443878
0.418437
0.400145
0.369286
0.323541
0.267097
0.200184
0.155363
0.159708
0.173243
0.189946
0.208178
0.231539
0.278389
0.3275
0.375193
0.421694
0.423241
0.406222
0.367202
0.327579
0.301549
0.26775
0.213317
0.14704
0.107104
0.0882866
0.097793
0.13186
0.144036
0.140043
0.129515
0.123364
0.126831
0.137752
0.148595
0.155018
0.1576
0.158025
0.157789
0.155671
0.150752
0.141985
0.125196
0.117697
0.129166
0.148586
0.170262
0.197546
0.226036
0.247021
0.257079
0.257172
0.253628
0.248869
0.245372
0.243311
0.24212
0.241459
0.241836
0.244663
0.250949
0.260012
0.270868
0.281465
0.291067
0.299347
0.305945
0.310609
0.313449
0.31484
0.315433
0.315742
0.316144
0.316674
0.317374
0.318072
0.318813
0.319411
0.32005
0.32049
0.321039
0.3215
0.321875
0.0972981
0.115665
0.106781
0.0932904
0.0893809
0.0914918
0.0975325
0.10466
0.110222
0.114244
0.116835
0.11868
0.118871
0.118303
0.116414
0.112434
0.106522
0.0976406
0.0919606
0.110919
0.231619
0.388878
0.469427
0.43631
0.39101
0.397495
0.422361
0.42625
0.415809
0.387521
0.370299
0.345436
0.313833
0.279574
0.252698
0.234621
0.208002
0.161253
0.118086
0.0915542
0.097921
0.11796
0.136247
0.160267
0.18023
0.217237
0.257732
0.324194
0.375195
0.383972
0.356177
0.283417
0.193093
0.14293
0.122782
0.113135
0.121892
0.13408
0.140368
0.232295
0.296183
0.306997
0.280429
0.254809
0.222023
0.199061
0.194527
0.20166
0.216515
0.228413
0.2379
0.244816
0.249317
0.255013
0.259377
0.259426
0.250651
0.196183
0.14771
0.148515
0.166195
0.196209
0.223079
0.241629
0.247994
0.245456
0.243409
0.243666
0.244523
0.244667
0.243356
0.240631
0.238564
0.23945
0.24511
0.255284
0.26776
0.280043
0.290957
0.300052
0.306916
0.311376
0.313728
0.31455
0.3147
0.314767
0.315057
0.315603
0.316361
0.317115
0.317906
0.31853
0.319193
0.319636
0.320208
0.320657
0.321061
0.0973
0.115665
0.106746
0.093205
0.0892567
0.0913403
0.0973515
0.104387
0.109832
0.1138
0.116152
0.117846
0.117748
0.116852
0.114435
0.109614
0.10249
0.0916509
0.083378
0.117484
0.269462
0.390941
0.358364
0.316151
0.314636
0.343004
0.377934
0.369106
0.337023
0.310468
0.26976
0.193696
0.151666
0.129231
0.113608
0.101192
0.0832295
0.0602157
0.0571165
0.0931791
0.0960583
0.0972035
0.150087
0.229713
0.271734
0.278816
0.305032
0.310882
0.293308
0.239562
0.14683
0.0919663
0.0854962
0.0852302
0.0901129
0.105378
0.130866
0.163947
0.267192
0.359344
0.360984
0.340228
0.288867
0.256099
0.216657
0.198293
0.196476
0.206058
0.225105
0.239482
0.251657
0.261354
0.268432
0.279023
0.288753
0.302718
0.312494
0.286589
0.196388
0.160533
0.169567
0.194447
0.218833
0.235358
0.239776
0.238916
0.241781
0.248131
0.253025
0.255678
0.255258
0.251979
0.248475
0.248431
0.253545
0.263751
0.27584
0.286956
0.296274
0.303837
0.309311
0.312541
0.313873
0.313992
0.313767
0.313657
0.313908
0.31453
0.315367
0.316181
0.317012
0.317656
0.318338
0.318783
0.31938
0.319816
0.320254
0.0973052
0.115662
0.106713
0.0931278
0.0891622
0.0912255
0.0972041
0.104179
0.109517
0.113441
0.115635
0.117139
0.116909
0.115718
0.112852
0.107422
0.099368
0.0869854
0.0771733
0.124265
0.279587
0.360117
0.315587
0.273826
0.254556
0.323455
0.341474
0.273576
0.207264
0.136807
0.0743659
0.0532428
0.0573107
0.0523602
0.0474
0.0458567
0.0467197
0.0387546
0.0716179
0.101509
0.0984355
0.236963
0.276697
0.328225
0.317739
0.245262
0.214713
0.135046
0.0873709
0.0969618
0.0908071
0.0846767
0.0813581
0.0796698
0.0832445
0.106911
0.155906
0.259251
0.364471
0.38233
0.346837
0.318367
0.242379
0.207932
0.152202
0.145517
0.149678
0.155352
0.165818
0.180922
0.201093
0.216791
0.233167
0.256397
0.279013
0.301685
0.336509
0.331685
0.253113
0.183399
0.176929
0.191844
0.21496
0.23085
0.236021
0.238468
0.246482
0.255596
0.26291
0.267177
0.267745
0.265447
0.262308
0.262194
0.266922
0.276136
0.286783
0.29576
0.302579
0.307809
0.311348
0.313088
0.313428
0.313052
0.312549
0.312417
0.312726
0.313456
0.314386
0.315256
0.316124
0.316785
0.317486
0.317937
0.31856
0.318987
0.319463
0.0973128
0.11564
0.106672
0.0930668
0.0890892
0.0911354
0.0970825
0.104022
0.109283
0.113166
0.11526
0.116611
0.116281
0.114883
0.111683
0.105833
0.0971247
0.0836374
0.0731244
0.129257
0.28125
0.338426
0.264023
0.226876
0.216222
0.305938
0.306819
0.17509
0.0966998
0.0392586
0.02426
0.0257423
0.0215256
0.0177635
0.0205138
0.0342159
0.0422429
0.0435381
0.0898294
0.12095
0.203689
0.301169
0.287847
0.325858
0.274886
0.107578
0.0564347
0.0845096
0.0899525
0.0862919
0.0716017
0.0621373
0.060715
0.0745327
0.0783819
0.108325
0.200968
0.336868
0.412605
0.355029
0.324557
0.286435
0.19694
0.176708
0.0866723
0.0690944
0.0674407
0.0680792
0.073048
0.082909
0.102298
0.121265
0.152693
0.212145
0.255754
0.295512
0.348563
0.355162
0.287392
0.204404
0.183466
0.191645
0.212258
0.228376
0.234805
0.24023
0.250255
0.260567
0.269021
0.274354
0.275908
0.274712
0.272391
0.272419
0.276767
0.28502
0.294468
0.302012
0.307058
0.310358
0.31219
0.312713
0.312417
0.311659
0.311164
0.311132
0.311603
0.312466
0.313485
0.314407
0.315305
0.31598
0.316699
0.317158
0.317809
0.318228
0.318744
0.0973142
0.115635
0.106663
0.0930434
0.0890428
0.0910748
0.0969979
0.103919
0.109132
0.112983
0.115014
0.116264
0.115866
0.114334
0.110921
0.104808
0.0956844
0.0815135
0.0708624
0.132167
0.276722
0.322876
0.247329
0.211373
0.196521
0.247425
0.0405548
0.042928
0.0569059
0.112995
0.13713
0.25541
0.311973
0.282561
0.30525
0.0764938
0.0975257
0.225958
0.366051
0.426281
0.342784
0.308524
0.270772
0.158259
0.107437
0.147624
0.223596
0.28395
0.353637
0.369539
0.306364
0.217774
0.187688
0.191911
0.210276
0.226645
0.23395
0.240785
0.251722
0.26281
0.2721
0.27843
0.280872
0.280291
0.278321
0.278289
0.282152
0.289693
0.298469
0.305346
0.309317
0.311418
0.312251
0.312108
0.311344
0.310492
0.310064
0.310141
0.310777
0.311738
0.312825
0.313782
0.314701
0.315387
0.31612
0.316587
0.317257
0.317678
0.318214
0.0973126
0.115638
0.106667
0.0930236
0.0889732
0.0909829
0.0968699
0.103767
0.108914
0.112712
0.114652
0.11575
0.115252
0.113526
0.1098
0.103308
0.093592
0.0784473
0.0677714
0.13424
0.269559
0.299571
0.208411
0.178682
0.170185
0.197539
0.0413243
0.044407
0.0726471
0.120886
0.136038
0.280355
0.315819
0.279066
0.278382
0.0907197
0.106396
0.268753
0.394736
0.430752
0.322636
0.287649
0.25515
0.128963
0.0427743
0.0609587
0.118769
0.240535
0.347036
0.390829
0.331698
0.23608
0.193835
0.19254
0.207811
0.223214
0.231571
0.240981
0.253218
0.265536
0.275966
0.283748
0.287729
0.288051
0.286457
0.285942
0.288741
0.294968
0.302237
0.307957
0.31097
0.311844
0.31159
0.310477
0.309243
0.308388
0.308154
0.308472
0.309416
0.310544
0.31174
0.312753
0.313707
0.314411
0.315167
0.315651
0.316349
0.316785
0.317343
0.0973147
0.115618
0.106644
0.0929844
0.088874
0.0908568
0.0966983
0.103561
0.10863
0.112349
0.114179
0.115082
0.114451
0.112476
0.108351
0.101397
0.0909705
0.0747461
0.0638721
0.135015
0.25882
0.278342
0.183222
0.151502
0.139926
0.141689
0.0479152
0.0499149
0.0605625
0.104783
0.148775
0.287751
0.306196
0.265822
0.264913
0.108503
0.154514
0.332321
0.419379
0.421105
0.303143
0.267139
0.229352
0.114059
0.0369757
0.0404957
0.0561656
0.111916
0.287925
0.37998
0.334232
0.240963
0.197215
0.192109
0.204211
0.216026
0.226051
0.239271
0.254761
0.268746
0.280101
0.2892
0.295082
0.296853
0.295837
0.294515
0.295253
0.298784
0.304298
0.308225
0.309545
0.309271
0.307949
0.306265
0.305076
0.304632
0.304871
0.305847
0.307257
0.308658
0.310014
0.311109
0.312113
0.312852
0.313652
0.314169
0.314921
0.31538
0.315984
0.097319
0.115596
0.106611
0.0929319
0.0887569
0.0907107
0.0964987
0.103309
0.108292
0.111902
0.113609
0.114279
0.113486
0.111217
0.106635
0.0991811
0.0880438
0.0707936
0.0590853
0.129896
0.241796
0.253893
0.157705
0.125983
0.110161
0.106639
0.0500485
0.0574633
0.0572182
0.0521595
0.165484
0.268332
0.282493
0.250164
0.262246
0.112942
0.200523
0.386345
0.451009
0.383805
0.279786
0.24571
0.211018
0.114818
0.0470132
0.0525342
0.0558249
0.064628
0.114725
0.282036
0.303166
0.227827
0.190084
0.186685
0.193349
0.200963
0.214977
0.237143
0.257686
0.273761
0.28581
0.29532
0.30204
0.303913
0.30272
0.300231
0.299223
0.300432
0.302607
0.303313
0.30296
0.30175
0.300111
0.29888
0.298477
0.298844
0.300186
0.302095
0.304099
0.305879
0.307452
0.308661
0.309747
0.31055
0.311428
0.312007
0.312845
0.313337
0.314024
0.0973258
0.115568
0.106564
0.0928517
0.0886063
0.0905244
0.0962465
0.102969
0.107855
0.111299
0.112856
0.113217
0.11221
0.109549
0.10443
0.0963781
0.0845611
0.0664119
0.0527914
0.117643
0.225726
0.238581
0.144372
0.113265
0.0939079
0.0845303
0.0322775
0.0477186
0.0473967
0.102472
0.229289
0.21629
0.234021
0.213677
0.241745
0.104679
0.213151
0.402641
0.45559
0.340556
0.247565
0.219824
0.210481
0.144139
0.0430791
0.0482433
0.0417169
0.0877587
0.11042
0.124551
0.171719
0.161462
0.145998
0.150541
0.151583
0.165407
0.19737
0.234782
0.264956
0.283861
0.295468
0.303645
0.307276
0.307757
0.305725
0.301994
0.299374
0.297225
0.293776
0.290231
0.28757
0.28609
0.285752
0.286318
0.287923
0.290264
0.29311
0.295972
0.298697
0.300978
0.302893
0.304335
0.305615
0.30658
0.307624
0.308329
0.309331
0.309877
0.310738
0.0973345
0.11555
0.106526
0.0927578
0.0884699
0.0903575
0.0960267
0.10265
0.107455
0.110732
0.112158
0.112231
0.111031
0.108001
0.102465
0.093936
0.0817938
0.0636484
0.0470318
0.0958856
0.211743
0.236798
0.151465
0.117986
0.0990272
0.0910091
0.0220694
0.0303351
0.0868282
0.264158
0.307667
0.163913
0.172564
0.173722
0.204924
0.0899999
0.186932
0.391133
0.447975
0.334768
0.255537
0.232099
0.228326
0.183542
0.0435363
0.0429276
0.0477544
0.119225
0.16827
0.179084
0.13958
0.126747
0.11777
0.106716
0.110949
0.137668
0.189063
0.241267
0.278669
0.299701
0.308403
0.309528
0.308053
0.303015
0.29654
0.291109
0.287005
0.282218
0.275918
0.271102
0.268871
0.268957
0.271054
0.274384
0.278163
0.281865
0.285538
0.28898
0.292154
0.294825
0.297106
0.298873
0.300447
0.301658
0.302931
0.303806
0.305025
0.30563
0.306738
0.097343
0.115538
0.106501
0.0926827
0.0883824
0.0902519
0.0958851
0.10244
0.10718
0.110355
0.111678
0.111594
0.110238
0.106973
0.101165
0.0924054
0.0801491
0.0625764
0.0444707
0.0742097
0.19782
0.239319
0.168439
0.130902
0.115552
0.112831
0.025187
0.068651
0.197886
0.329292
0.328648
0.147436
0.113967
0.143592
0.169514
0.092784
0.174467
0.382422
0.442599
0.337267
0.27328
0.259529
0.256144
0.21588
0.0478085
0.0468637
0.0364841
0.0897785
0.140695
0.172834
0.166585
0.120906
0.105807
0.0858664
0.0906806
0.129387
0.188983
0.246468
0.288122
0.309467
0.314022
0.309131
0.296175
0.283346
0.273378
0.267594
0.264479
0.261506
0.258051
0.256301
0.256507
0.258833
0.262723
0.267181
0.271646
0.275774
0.279728
0.283397
0.286816
0.289753
0.292325
0.294366
0.296192
0.29761
0.299073
0.300087
0.30149
0.302138
0.303468
0.0973502
0.115531
0.106474
0.0926219
0.088314
0.0901754
0.0957769
0.102286
0.106963
0.110077
0.11129
0.111134
0.109636
0.106197
0.10016
0.0913037
0.0789656
0.0620521
0.0437904
0.0567712
0.177266
0.241446
0.194675
0.158317
0.147378
0.146213
0.0821645
0.174942
0.252769
0.342834
0.304644
0.148096
0.0781399
0.125057
0.148197
0.106565
0.176923
0.374812
0.438462
0.344115
0.290454
0.280851
0.297927
0.264797
0.0534764
0.0531888
0.0454964
0.095762
0.13058
0.156241
0.160487
0.113936
0.0923878
0.0721952
0.0821768
0.126113
0.186687
0.245692
0.288998
0.310402
0.311567
0.298575
0.277511
0.259907
0.248439
0.243742
0.242879
0.243325
0.244233
0.245932
0.24884
0.252758
0.257299
0.261924
0.266432
0.27066
0.274728
0.278544
0.282166
0.285332
0.288153
0.290428
0.292469
0.294066
0.295694
0.296833
0.298396
0.299095
0.300612
0.0973565
0.115512
0.106434
0.0925768
0.0882582
0.0901154
0.0956897
0.102176
0.106803
0.109878
0.111008
0.110802
0.109205
0.105637
0.0994495
0.0905167
0.0781616
0.0617774
0.0438382
0.0463773
0.156737
0.241104
0.226422
0.180653
0.16653
0.208013
0.223868
0.248503
0.267278
0.327872
0.272957
0.14675
0.0570244
0.112394
0.134626
0.127999
0.181763
0.369716
0.436464
0.355793
0.308274
0.299713
0.32221
0.292433
0.0589052
0.0559059
0.0575612
0.102475
0.130932
0.150952
0.154138
0.109708
0.0845997
0.0660094
0.0790566
0.123253
0.181596
0.238502
0.281228
0.300366
0.299158
0.282286
0.25887
0.24054
0.230137
0.227358
0.228734
0.232546
0.236588
0.240587
0.244793
0.249196
0.25369
0.258073
0.262411
0.266595
0.270737
0.274673
0.278458
0.281803
0.28481
0.287258
0.289462
0.291194
0.292953
0.294192
0.295886
0.296627
0.298304
0.0973568
0.115509
0.106425
0.0925645
0.0882235
0.0900745
0.095629
0.102103
0.1067
0.109751
0.110825
0.110585
0.108927
0.105273
0.099007
0.0900101
0.0776696
0.0615866
0.0443617
0.0399806
0.140684
0.239146
0.243079
0.206027
0.192143
0.234229
0.277843
0.151014
0.11814
0.111335
0.107698
0.111899
0.127736
0.170343
0.207441
0.264574
0.256722
0.262707
0.308901
0.256262
0.147066
0.0540209
0.0832106
0.116974
0.103609
0.103523
0.113252
0.108665
0.0655989
0.0156384
0.00715331
0.00878218
0.0177379
0.0544573
0.138053
0.186667
0.365883
0.434471
0.366283
0.318983
0.310317
0.349785
0.331768
0.202635
0.0555746
0.0452952
0.0604586
0.0671238
0.0441441
0.0356481
0.0316681
0.0355881
0.061669
0.0553617
0.0639008
0.105158
0.133504
0.150209
0.150585
0.108157
0.0813074
0.0636829
0.0775738
0.119634
0.174314
0.227876
0.268114
0.285553
0.28363
0.266631
0.244747
0.228416
0.220213
0.218921
0.221769
0.227293
0.232814
0.237862
0.242578