/*--------------------------------*- C++ -*----------------------------------*\
| =========                 |                                                 |
| \\      /  F ield         | OpenFOAM: The Open Source CFD Toolbox           |
|  \\    /   O peration     | Version:  v2006                                 |
|   \\  /    A nd           | Website:  www.openfoam.com                      |
|    \\/     M anipulation  |                                                 |
\*---------------------------------------------------------------------------*/
FoamFile
{
    version     2.0;
    format      ascii;
    class       volScalarField;
    location    "0.52";
    object      omega;
}
// * * * * * * * * * * * * * * * * * * * * * * * * * * * * * * * * * * * * * //

dimensions      [0 0 -1 0 0 0 0];


internalField   nonuniform List<scalar> 
374400
(
281.09
305.78
294.256
278.251
276.706
281.454
292.62
303.886
313.339
321.166
328.237
334.757
341.003
347.055
353.056
358.907
364.702
370.445
375.894
380.77
384.782
387.859
390.301
392.07
393.495
394.583
395.305
396.394
397.868
399.724
402.364
405.033
406.957
408.493
409.657
410.426
411.581
413.131
415.066
417.787
420.491
422.419
423.938
425.082
425.834
426.957
428.452
430.306
432.128
433.572
435.344
437.1
438.47
439.495
440.167
441.164
442.49
444.121
446.366
448.541
450.076
451.269
452.164
452.751
453.622
454.779
456.201
458.163
460.066
461.412
462.456
463.241
463.754
464.516
465.526
466.774
468.49
470.883
474.104
477.938
481.907
485.653
489.068
492.058
494.498
496.419
497.977
499.275
500.374
501.313
502.127
502.838
503.459
503.998
504.462
504.857
505.192
505.475
505.71
505.903
506.057
506.177
506.271
506.343
506.399
506.442
506.479
506.508
506.534
506.557
506.583
506.603
506.629
506.654
506.671
506.817
506.6
281.092
305.778
294.251
278.241
276.69
281.435
292.595
303.859
313.314
321.143
328.223
334.752
341.01
347.078
353.099
358.977
364.8
370.574
376.056
380.962
384.996
388.091
390.544
392.322
393.754
394.844
395.57
396.663
398.143
400.007
402.654
405.33
407.258
408.798
409.964
410.735
411.891
413.442
415.38
418.103
420.808
422.736
424.254
425.397
426.149
427.27
428.762
430.613
432.432
433.873
435.641
437.392
438.758
439.779
440.449
441.443
442.763
444.388
446.623
448.787
450.314
451.5
452.39
452.974
453.838
454.986
456.401
458.35
460.24
461.576
462.612
463.391
463.9
464.655
465.657
466.896
468.597
470.974
474.172
477.976
481.918
485.64
489.035
492.014
494.45
496.373
497.937
499.247
500.357
501.31
502.137
502.862
503.496
504.044
504.516
504.919
505.261
505.547
505.786
505.979
506.133
506.252
506.344
506.415
506.47
506.514
506.548
506.577
506.605
506.627
506.651
506.673
506.699
506.724
506.742
506.889
506.672
281.095
305.769
294.236
278.214
276.651
281.392
292.545
303.803
313.26
321.099
328.191
334.74
341.025
347.128
353.197
359.129
365.016
370.862
376.414
381.386
385.472
388.604
391.084
392.88
394.325
395.426
396.158
397.261
398.752
400.63
403.295
405.986
407.925
409.47
410.64
411.414
412.574
414.129
416.072
418.799
421.502
423.429
424.945
426.086
426.835
427.955
429.442
431.286
433.097
434.53
436.286
438.025
439.382
440.394
441.059
442.043
443.351
444.96
447.171
449.309
450.816
451.986
452.863
453.438
454.29
455.422
456.814
458.732
460.589
461.901
462.918
463.683
464.183
464.925
465.91
467.125
468.795
471.126
474.261
477.991
481.856
485.511
488.856
491.801
494.224
496.152
497.731
499.06
500.199
501.181
502.039
502.793
503.452
504.022
504.514
504.931
505.284
505.58
505.822
506.017
506.169
506.286
506.374
506.44
506.492
506.531
506.563
506.589
506.614
506.636
506.661
506.681
506.708
506.732
506.75
506.897
506.68
281.098
305.758
294.213
278.167
276.584
281.315
292.452
303.701
313.157
321.004
328.115
334.69
341.015
347.17
353.308
359.328
365.317
371.278
376.95
382.031
386.204
389.398
391.925
393.752
395.222
396.341
397.084
398.203
399.716
401.618
404.314
407.033
408.989
410.547
411.724
412.503
413.669
415.232
417.183
419.917
422.624
424.549
426.062
427.199
427.946
429.059
430.538
432.37
434.166
435.587
437.326
439.045
440.384
441.383
442.038
443.008
444.294
445.877
448.047
450.142
451.617
452.759
453.614
454.175
455.004
456.105
457.459
459.323
461.128
462.402
463.387
464.127
464.611
465.327
466.277
467.452
469.066
471.323
474.361
477.975
481.723
485.277
488.545
491.446
493.855
495.794
497.403
498.775
499.958
500.988
501.893
502.69
503.389
503.995
504.514
504.956
505.326
505.631
505.876
506.068
506.215
506.325
506.403
506.461
506.504
506.534
506.561
506.583
506.605
506.624
506.646
506.667
506.694
506.719
506.738
506.889
506.673
281.104
305.738
294.176
278.092
276.473
281.19
292.3
303.528
312.974
320.826
327.954
334.557
340.93
347.152
353.384
359.525
365.661
371.794
377.647
382.897
387.207
390.5
393.102
394.981
396.489
397.637
398.399
399.545
401.091
403.034
405.781
408.542
410.525
412.102
413.293
414.08
415.258
416.835
418.799
421.546
424.255
426.177
427.686
428.818
429.561
430.669
432.138
433.953
435.729
437.13
438.844
440.534
441.848
442.826
443.468
444.417
445.675
447.218
449.329
451.357
452.782
453.883
454.709
455.249
456.049
457.11
458.411
460.197
461.918
463.132
464.07
464.775
465.237
465.92
466.829
467.949
469.485
471.63
474.513
477.945
481.51
484.911
488.068
490.907
493.303
495.267
496.92
498.35
499.601
500.703
501.676
502.536
503.29
503.945
504.505
504.978
505.37
505.69
505.94
506.134
506.275
506.376
506.447
506.494
506.527
506.549
506.569
506.584
506.601
506.616
506.638
506.657
506.683
506.709
506.728
506.879
506.665
281.114
305.71
294.12
277.978
276.303
280.995
292.058
303.248
312.669
320.513
327.649
334.273
340.696
346.993
353.34
359.637
365.976
372.353
378.472
383.978
388.5
391.952
394.671
396.633
398.204
399.397
400.189
401.378
402.979
404.987
407.817
410.651
412.68
414.289
415.503
416.304
417.5
419.098
421.086
423.857
426.578
428.502
430.007
431.132
431.87
432.967
434.42
436.212
437.96
439.337
441.015
442.665
443.945
444.895
445.516
446.432
447.645
449.131
451.157
453.094
454.449
455.489
456.265
456.772
457.52
458.51
459.725
461.392
462.995
464.121
464.986
465.635
466.058
466.681
467.511
468.537
469.95
471.93
474.605
477.794
481.124
484.336
487.365
490.149
492.552
494.562
496.283
497.794
499.131
500.32
501.382
502.325
503.154
503.873
504.489
505.005
505.426
505.76
506.015
506.202
506.332
506.417
506.468
506.499
506.514
506.524
506.533
506.542
506.556
506.57
506.59
506.609
506.639
506.668
506.69
506.844
506.633
281.128
305.669
294.038
277.812
276.051
280.704
291.694
302.82
312.187
319.999
327.118
333.744
340.203
346.57
353.044
359.536
366.132
372.849
379.351
385.241
390.089
393.787
396.693
398.782
400.452
401.717
402.556
403.813
405.501
407.615
410.574
413.521
415.62
417.279
418.526
419.348
420.573
422.204
424.228
427.031
429.762
431.683
433.178
434.293
435.024
436.108
437.539
439.301
441.008
442.351
443.977
445.568
446.796
447.706
448.3
449.177
450.333
451.743
453.651
455.451
456.703
457.662
458.378
458.846
459.536
460.449
461.561
463.067
464.495
465.496
466.263
466.843
467.223
467.785
468.53
469.447
470.697
472.442
474.778
477.584
480.548
483.467
486.322
489.05
491.48
493.575
495.412
497.046
498.514
499.827
501
502.044
502.967
503.769
504.45
505.013
505.466
505.819
506.082
506.265
506.382
506.45
506.482
506.49
506.487
506.483
506.48
506.482
506.49
506.504
506.523
506.545
506.577
506.607
506.634
506.792
506.585
281.146
305.611
293.924
277.578
275.693
280.289
291.169
302.19
311.462
319.193
326.254
332.836
339.292
345.699
352.289
358.992
365.915
373.074
380.133
386.603
391.963
396.059
399.27
401.573
403.409
404.793
405.709
407.08
408.913
411.193
414.366
417.496
419.711
421.451
422.75
423.605
424.873
426.554
428.629
431.48
434.231
436.149
437.634
438.736
439.456
440.52
441.923
443.644
445.303
446.601
448.167
449.694
450.864
451.726
452.285
453.103
454.178
455.483
457.242
458.88
459.999
460.836
461.45
461.847
462.421
463.175
464.089
465.335
466.505
467.311
467.909
468.354
468.64
469.057
469.615
470.312
471.288
472.682
474.59
476.919
479.463
482.125
484.867
487.606
490.114
492.348
494.322
496.076
497.651
499.079
500.381
501.561
502.619
503.539
504.317
504.955
505.458
505.839
506.107
506.278
506.371
506.402
506.401
506.379
506.352
506.33
506.317
506.316
506.323
506.339
506.366
506.394
506.434
506.472
506.509
506.677
506.481
281.173
305.534
293.771
277.267
275.205
279.719
290.442
301.299
310.413
317.997
324.917
331.375
337.747
344.114
350.755
357.648
364.933
372.674
380.486
387.845
394.029
398.763
402.478
405.138
407.249
408.835
409.884
411.447
413.522
416.088
419.609
423.024
425.413
427.269
428.642
429.542
430.87
432.613
434.747
437.632
440.367
442.251
443.696
444.762
445.457
446.48
447.822
449.461
451.028
452.247
453.704
455.11
456.177
456.958
457.465
458.209
459.179
460.349
461.887
463.272
464.212
464.918
465.443
465.785
466.289
466.943
467.717
468.696
469.54
470.108
470.527
470.845
471.053
471.358
471.754
472.227
472.843
473.675
474.785
476.237
477.99
480.1
482.633
485.403
488.128
490.636
492.85
494.796
496.484
498.046
499.533
500.911
502.137
503.189
504.067
504.779
505.334
505.746
506.024
506.186
506.251
506.252
506.214
506.157
506.107
506.069
506.051
506.051
506.065
506.091
506.131
506.171
506.229
506.278
506.329
506.513
506.34
281.203
305.44
293.585
276.874
274.592
278.998
289.508
300.152
309.017
316.359
323.027
329.232
335.36
341.534
348.06
355.017
362.61
370.993
379.822
388.439
395.862
401.716
406.283
409.541
412.118
414.041
415.31
417.192
419.671
422.71
426.816
430.696
433.373
435.414
436.892
437.852
439.248
441.034
443.172
445.955
448.542
450.315
451.671
452.68
453.339
454.317
455.611
457.205
458.746
459.946
461.386
462.785
463.844
464.616
465.111
465.827
466.751
467.847
469.272
470.498
471.275
471.787
472.116
472.31
472.547
472.812
473.085
473.397
473.595
473.664
473.665
473.652
473.619
473.555
473.501
473.457
473.468
473.504
473.605
474.03
475.142
477.129
479.808
482.872
485.991
488.739
490.96
492.91
494.687
496.379
498.083
499.71
501.166
502.412
503.447
504.282
504.929
505.398
505.698
505.849
505.883
505.848
505.76
505.672
505.605
505.567
505.562
505.581
505.629
505.683
505.763
505.83
505.921
505.997
506.081
506.297
506.167
281.239
305.337
293.37
276.446
273.893
278.173
288.437
298.806
307.344
314.371
320.622
326.445
332.091
337.856
343.929
350.666
358.305
367.082
376.885
387.028
396.152
403.365
409.213
413.461
416.85
419.388
421.063
423.555
426.797
430.74
435.866
440.412
443.344
445.45
446.903
447.824
449.126
450.747
452.625
454.976
457.009
458.344
459.334
460.078
460.565
461.299
462.304
463.572
464.821
465.812
466.995
468.13
468.963
469.576
469.969
470.552
471.31
472.227
473.438
474.542
475.341
476.002
476.541
476.901
477.474
478.244
479.135
479.989
480.401
480.495
480.429
480.242
480.083
479.83
479.415
478.793
477.784
476.381
474.575
472.631
471.934
472.847
475.516
479.278
483.074
486.151
488.314
490.281
492.205
494.083
496.034
497.945
499.658
501.104
502.304
503.292
504.076
504.652
505.025
505.213
505.252
505.199
505.085
504.99
504.936
504.927
504.965
505.041
505.151
505.256
505.392
505.504
505.654
505.77
505.9
506.165
506.1
281.277
305.227
293.146
276.005
273.138
277.301
287.268
297.359
305.48
312.123
317.796
323.12
327.983
332.996
338.252
344.156
351.151
359.656
369.988
381.527
392.806
402.242
410.386
416.145
420.753
424.105
426.258
429.354
433.074
437.276
441.61
444.448
445.885
446.671
447.131
447.386
447.749
448.113
448.608
449.145
449.383
449.462
449.474
449.459
449.473
449.537
449.705
449.994
450.327
450.502
450.467
450.37
450.329
450.393
450.494
450.774
451.441
452.828
455.67
458.715
460.856
462.297
463.177
463.687
464.292
464.98
465.656
466.899
468.576
469.752
470.559
471.064
471.356
471.73
472.109
472.341
472.236
471.262
469.144
466.331
465.55
467.104
470.937
475.761
480.123
483.082
484.793
486.341
488.317
490.393
492.584
494.885
496.986
498.785
500.29
501.57
502.618
503.401
503.921
504.21
504.315
504.291
504.208
504.145
504.143
504.202
504.343
504.51
504.714
504.902
505.12
505.303
505.523
505.692
505.89
506.198
506.205
281.311
305.123
292.927
275.57
272.371
276.438
286.048
295.937
303.521
309.74
314.776
319.372
323.293
327.131
331.069
335.251
340.431
347.27
356.746
368.872
382.899
394.361
404.602
412.266
417.415
420.768
422.754
425.562
428.425
432.292
433.062
431.783
429.627
426.996
424.781
423.237
420.809
417.571
413.815
408.892
405.962
404.622
404.797
405.213
405.759
407.133
409.516
412.82
416.152
418.693
421.467
423.794
425.162
426.178
426.852
427.526
429.186
430.358
433.396
440.129
446.926
453.773
459.554
463.469
469.713
478.142
487.699
494.775
496.522
496.043
493.821
491.584
490.222
488.263
485.848
483.28
479.311
472.674
463.246
454.448
451.754
454.693
462.18
469.667
475.079
477.753
478.507
479.313
481.278
483.914
486.8
489.936
492.883
495.323
497.326
499.021
500.444
501.562
502.371
502.905
503.191
503.264
503.254
503.243
503.314
503.479
503.731
504.011
504.328
504.617
504.929
505.187
505.484
505.708
505.974
506.31
506.399
281.341
305.037
292.746
275.169
271.697
275.647
284.972
294.628
301.693
307.57
311.879
315.729
318.662
321.051
323.229
324.991
326.954
330.132
336.532
349.105
364.128
382.158
401.438
420.048
436.507
452.004
464.724
486.047
517.521
548.704
562.297
559.275
552.741
543.371
535.596
530.336
522.096
511.29
496.849
471.068
448.922
436.113
433.915
434.608
436.049
440.616
450.406
464.936
478.813
488.714
497.652
503.028
505.573
506.491
506.825
506.717
506.078
504.846
505.617
507.533
506.987
501.931
491.871
483.085
469.535
455.684
451.191
454.431
461.822
466.441
469.426
471.434
472.686
474.495
476.607
478.371
478.11
474.159
460.78
444.292
436.714
440.173
449.85
459.386
465.799
468.269
468.204
468.166
469.604
472.816
476.495
480.585
484.565
487.831
490.568
493.022
495.25
497.186
498.792
500.043
500.903
501.382
501.646
501.837
502.101
502.432
502.851
503.282
503.735
504.134
504.545
504.881
505.252
505.524
505.853
506.21
506.372
281.36
304.976
292.638
274.815
271.205
275
284.191
293.512
300.318
305.738
309.631
312.666
314.765
316.033
316.026
315.519
313.666
311.501
313.48
324.107
351.326
401.594
488.272
554.53
599.704
630.521
647.215
673.143
695.374
709.345
701.964
682.84
662.425
645.453
633.116
625.276
614.284
600.594
582.28
540.831
496.657
470.502
458.046
458.162
459.605
465.494
481.445
507.016
529.626
546.023
559.562
565.259
564.143
561.988
559.122
552.941
536.234
499.813
432.089
346.387
312.603
299.799
290.166
281.904
269.457
261.176
261.298
270.97
289.543
304.764
318.113
328.37
335.088
345.706
360.387
378.195
399.184
419.706
426.28
420.976
422.249
431.098
444.06
453.817
458.332
458.311
455.957
452.831
451.907
453.34
457.135
461.578
466.485
471.602
476.721
481.684
486.279
490.329
493.736
496.399
498.244
499.356
500.012
500.447
500.889
501.371
501.929
502.479
503.037
503.52
503.998
504.381
504.8
505.099
505.466
505.828
506.032
281.371
304.946
292.568
274.571
270.842
274.552
283.642
292.719
299.372
304.394
308.024
310.517
311.857
312.169
310.977
308.263
303.094
295.032
291.526
307.249
376.484
515.357
605.463
643.296
662.42
675.451
682.737
697.506
700.975
693.521
669.069
638.908
614.654
594.876
581.12
570.965
559.405
537.866
496.443
431.665
366.676
368.61
382.709
404.402
425.162
454.882
505.493
543.756
593.683
598.79
581.94
539.708
493.807
452.35
423.012
395.704
352.636
304.932
282.312
326.857
361.121
369.255
367.708
366.718
365.948
362.491
357.031
348.872
341.881
338.4
336.489
335.768
336.072
337.936
341.111
344.923
356.866
379.745
399.507
406.307
413.664
425.204
436.48
446.597
450.44
449.306
445.393
439.634
435.622
434.112
434.705
437.584
442.665
450.08
459.679
469.495
478.153
485.306
490.833
494.74
497.169
498.475
499.135
499.528
499.961
500.472
501.088
501.704
502.321
502.845
503.359
503.761
504.198
504.501
504.89
505.246
505.472
281.375
304.94
292.509
274.42
270.575
274.253
283.275
292.169
298.736
303.481
306.852
309.115
309.76
309.467
307.486
303.093
295.284
283.049
273.45
303.932
441.052
561.272
613.955
590.102
552.257
555.054
570.749
575.439
568.581
549.491
534.758
505.604
477.433
456.978
438.712
424.866
396.6
346.952
318.489
296.777
290.106
318.868
371.718
402.877
432.403
460.366
514.472
577.594
579.978
561.322
477.261
346.721
279.389
265.781
269.825
283.733
308.457
339.936
434.629
519.513
531.361
517.117
476.54
451.935
427.963
417.73
416.537
415.474
414.702
415.049
416.015
417.47
419.215
420.2
421.295
420.135
412.494
404.99
404.128
400.742
404.992
413.513
421.716
433.389
438.164
439.837
439.454
436.818
432.621
428.88
426.628
426.98
431.288
440.449
452.878
465.666
476.523
485.038
491.206
495.167
497.3
498.191
498.515
498.721
499.088
499.609
500.274
500.938
501.597
502.146
502.679
503.085
503.537
503.841
504.248
504.595
504.844
281.379
304.935
292.459
274.306
270.394
274.05
283.03
291.783
298.273
302.879
305.978
308.156
308.26
307.613
304.983
299.397
289.765
274.207
260.627
315.982
471.163
561.376
534.167
496.149
490.157
511.078
537.823
532.966
512.439
488.081
445.873
372.464
322.347
279.182
255.009
249.105
252.093
236.601
220.054
295.448
329.302
313.053
336.204
376.292
424.682
450.517
515.73
531.097
486.436
383.991
290.072
261.788
256.94
266.965
279.599
304.942
356.223
456.415
557.591
586.886
569.763
553.825
503.707
471.151
434.355
421.85
424.282
425.135
425.948
428.069
432.191
437.842
442.204
448.876
457.472
465.532
462.916
443.165
414.933
396.053
394.095
398.236
406.486
421.341
429.943
437.615
443.102
443.2
439.128
433.687
429.75
429.405
433.692
443.637
456.753
469.605
479.888
487.657
493.031
496.157
497.508
497.801
497.787
497.836
498.173
498.753
499.481
500.193
500.885
501.453
501.999
502.414
502.877
503.185
503.611
503.948
504.224
281.387
304.929
292.414
274.204
270.259
273.893
282.837
291.484
297.889
302.417
305.289
307.343
307.147
306.136
302.972
296.46
285.43
267.15
251.283
324.972
478.259
537.079
500.092
459.648
444.66
494.844
511.294
460.951
395.137
314.079
231.914
206.27
207.946
200.226
206.704
225.381
235.817
205.988
251.514
314.136
309.312
354.122
436.142
512.48
515.787
499.084
477.631
372.031
293.846
280.217
264.547
257.025
266.153
277.67
293.282
343.557
437.59
557.001
618.783
594.944
572.691
558.363
503.14
460.003
377.759
334.446
326.88
330.314
340.106
352.368
371.492
389.768
406.573
428.898
448.403
475.164
490.378
476.603
431.608
392.547
380.46
383.148
395.979
415.191
428.742
442.978
451.447
452.437
448.486
442.733
438.719
438.604
443.439
453.197
465.38
476.742
485.037
490.946
494.819
496.769
497.278
497.115
496.857
496.851
497.223
497.892
498.694
499.454
500.177
500.76
501.32
501.744
502.221
502.535
502.982
503.313
503.618
281.398
304.9
292.358
274.12
270.154
273.767
282.681
291.262
297.596
302.071
304.789
306.699
306.361
305.05
301.465
294.292
282.264
261.943
245.518
331.809
479.036
521.269
453.727
417.42
405.216
477.826
484.525
371.858
275.904
185.169
148.744
158.029
149.624
144.82
177.634
217.082
231.396
204.095
295.076
333.861
337.384
502.41
506.847
536
511.388
341.992
255.824
265.933
249.032
240.812
232.152
228.144
237.759
248.693
248.766
347.871
487.723
602.357
645.625
584.407
557.187
539.863
428.852
406.677
275.995
221.124
214.283
214.969
227.934
246.875
277.372
301.327
337.249
392.564
430.721
471.344
502.888
493.471
442.213
388.454
368.384
371.976
391.343
413.104
431.061
446.979
456.065
457.752
454.541
449.459
446.259
446.62
451.811
461.081
472.328
482.406
489.105
493.393
495.783
496.629
496.556
496.074
495.768
495.821
496.322
497.094
497.969
498.772
499.521
500.119
500.691
501.126
501.619
501.941
502.408
502.732
503.069
281.399
304.894
292.346
274.087
270.088
273.681
282.571
291.118
297.403
301.84
304.463
306.266
305.838
304.34
300.466
292.892
280.208
258.594
242.283
335.103
474.603
509.174
438.254
402.281
388.289
431.786
214.372
228.227
218.272
320.081
359.527
423.495
528.782
507.743
520.598
199.944
323.829
507.594
618.691
651.539
572.699
540.268
511.534
362.784
291.982
332.245
404.323
462.733
511.386
505.587
450.534
384.661
359.642
365.257
389.467
411.701
431.387
447.724
457.061
459.907
458.023
453.81
451.071
451.545
456.564
465.265
475.781
485.382
491.317
494.573
496.02
496.208
495.798
495.163
494.891
495.028
495.652
496.504
497.435
498.269
499.036
499.643
500.227
500.67
501.175
501.504
501.987
502.312
502.663
281.397
304.898
292.351
274.057
269.987
273.551
282.403
290.906
297.12
301.498
303.986
305.62
305.06
303.293
298.989
290.838
277.194
253.723
237.313
337.431
468.226
491.404
402.382
367.819
355.59
384.099
203.88
224.6
236.945
338.057
367.615
498.724
541.824
508.22
508.402
190.335
323.897
537.528
637.142
654.351
553.86
513.727
466.626
321.552
198.555
222.438
289.672
413.906
505.519
517.501
459.573
378.367
344.048
357.776
386.233
407.594
429.256
446.323
457.183
462.162
462.46
460.265
458.161
458.43
462.594
470.222
479.305
487.934
493.16
495.377
495.653
495.119
494.177
493.498
493.352
493.688
494.543
495.533
496.555
497.437
498.234
498.858
499.462
499.921
500.447
500.792
501.294
501.632
501.996
281.4
304.873
292.321
273.998
269.845
273.373
282.176
290.628
296.75
301.038
303.371
304.774
304.042
301.934
297.071
288.198
273.362
247.734
231.186
338.208
457.682
472.493
378.26
342.912
329.359
329.947
211.42
235.564
226.879
318.708
366.46
520.531
543.996
501.56
501.683
237.208
361.787
575.629
654.085
648.254
519.073
470.297
416.913
293.675
204.188
209.576
225.864
279.286
444.237
504.208
454.869
357.624
329.302
353.279
377.854
398.402
421.394
441.012
455.56
463.663
467.351
467.971
467.04
466.632
468.714
473.765
481.388
488.864
492.855
493.733
493.125
491.807
490.814
490.45
490.702
491.574
492.786
494.001
495.153
496.104
496.944
497.601
498.24
498.732
499.296
499.668
500.208
500.564
500.959
281.407
304.844
292.276
273.921
269.679
273.168
281.906
290.291
296.304
300.469
302.638
303.748
302.806
300.299
294.787
285.118
269.012
241.309
223.105
332.211
443.048
452.221
350.426
310.024
290.217
285.131
213.703
243.747
241.388
233.779
384.209
503.528
516.597
484.485
501.176
274.365
405.812
609.425
669.537
611.609
480.553
438.299
405.977
310.471
223.037
236.03
234.503
244.991
274.433
399.113
392.25
309.761
311.162
335.804
356.671
379.769
411.556
438.266
455.317
466.448
473.085
476.303
476.307
474.314
473.448
475.081
480.218
485.408
487.857
487.951
486.92
485.753
485.369
485.726
486.911
488.523
490.222
491.737
493.064
494.111
495.021
495.736
496.441
496.99
497.617
498.034
498.635
499.014
499.466
281.417
304.81
292.212
273.805
269.467
272.909
281.558
289.842
295.722
299.694
301.678
302.38
301.162
298.142
291.816
281.189
263.758
234.037
211.737
317.425
428.609
438.771
335.298
293.829
268.597
254.347
190.34
230.135
231.461
290.149
452.218
443.422
464.815
440.712
472.977
281.976
403.39
605.264
661.123
580.956
467.216
429.813
417.718
349.948
221.952
230.275
212.825
325.921
362.145
361.222
336.381
305.806
285.092
285.865
309.451
355.2
404.542
440.843
462.099
473.804
480.716
483.013
482.25
478.882
475.265
474.058
474.832
475.47
475.302
474.922
474.797
475.258
476.636
478.664
481.097
483.528
485.813
487.725
489.325
490.57
491.65
492.511
493.355
494.021
494.766
495.27
495.983
496.4
496.975
281.426
304.787
292.163
273.673
269.276
272.677
281.253
289.42
295.19
298.959
300.792
301.099
299.634
296.153
289.122
277.726
259.574
229.269
200.254
289.901
416.679
437.96
345.244
299.754
276.089
264.134
163.469
191.769
263.248
464.998
524.01
393.299
401.671
398.695
429.951
270.124
359.106
583.772
648.126
585.431
477.913
449.144
446.236
400.252
234.182
234.924
220.565
321.351
387.51
409.626
361.277
300.399
262.352
238.789
283.024
350.461
414.167
457.188
478.334
485.253
485.789
484.798
480.611
474.118
468.918
466.097
463.284
460.51
459.249
459.738
461.964
465.056
468.398
471.641
474.804
477.737
480.422
482.673
484.59
486.115
487.449
488.523
489.557
490.379
491.273
491.888
492.752
493.207
493.956
281.434
304.775
292.13
273.569
269.157
272.529
281.058
289.134
294.829
298.469
300.195
300.245
298.614
294.819
287.352
275.517
257.095
227.375
194.086
260.204
405.018
440.511
365.365
316.968
297.577
293.108
163.154
244.331
402.29
529.891
538.652
379.377
330.843
362.456
390.347
287.652
355.606
567.866
638.404
591.044
498.33
483.617
484.162
447.129
252.58
251.592
209.006
279.484
340.58
370.072
368.595
293.038
247.855
231.168
284.685
356.996
425.429
471.466
490.375
490.853
483.845
472.773
462.932
455.445
451.519
450.292
448.734
447.527
447.987
450.586
454.51
458.774
462.821
466.482
469.916
473.072
475.997
478.504
480.683
482.448
483.994
485.242
486.432
487.38
488.397
489.104
490.096
490.577
491.489
281.442
304.766
292.096
273.484
269.065
272.424
280.909
288.925
294.544
298.106
299.716
299.625
297.828
293.805
285.981
273.955
255.232
226.56
191.822
229.355
387.236
444.09
395.811
346.965
333.551
333.262
269.071
378.284
463.606
543.584
519.885
378.768
274.892
343.443
369.969
310.742
356.531
553.343
629.084
600.235
518.02
505.275
516.079
485.627
266.025
269.967
210.149
301.312
335.304
356.889
361.406
295.818
250.61
237.254
288.865
360.813
429.8
476.593
494.225
491.275
473.924
454.792
440.956
433.824
432.389
433.739
435.685
437.764
440.886
445.032
449.634
454.135
458.306
462.102
465.672
468.992
472.121
474.853
477.262
479.228
480.958
482.354
483.68
484.739
485.867
486.658
487.764
488.272
489.33
281.452
304.741
292.044
273.419
268.989
272.341
280.789
288.779
294.329
297.85
299.355
299.195
297.261
293.067
284.992
272.86
253.931
226.194
191.473
208
366.227
444.403
427.268
374.382
360.918
398.444
431.991
450.061
478.751
535.434
490.75
368.608
238.362
339.594
378.502
336.477
359.008
541.714
620.141
610.268
532.899
521.797
539.452
507.548
278.348
275.689
232.342
313.946
340.274
355.506
357.027
301.648
259.165
244.847
292.027
361.589
430.091
476.639
491.174
484.325
461.723
439.514
424.572
418.485
418.698
422.58
427.654
432.356
437.044
441.79
446.405
450.727
454.781
458.587
462.263
465.721
469.021
471.926
474.507
476.623
478.49
480.001
481.433
482.58
483.799
484.659
485.861
486.397
487.574
281.453
304.736
292.033
273.399
268.94
272.284
280.704
288.683
294.192
297.684
299.117
298.914
296.896
292.586
284.372
272.142
253.15
225.931
192.28
192.99
349.684
442.985
443.518
401.164
385.026
420.87
465.098
346.297
310.239
305.821
302.031
307.411
329.9
381.187
417.728
465.36
457.728
478.965
518.258
474.732
366.899
226.056
315.107
363.521
341.785
321.151
319.243
289.946
178.604
101.268
95.5827
104.229
126.584
227.662
336.38
358.738
534.246
614.614
616.94
541.493
530.574
558.441
537.267
411.053
223.435
226.692
268.158
280.726
226.099
201.832
191.852
219.061
285.859
273.413
253.847
317.354
343.141
359.434
356.361
306.06
266.314
249.788
292.698
359.518
426.088
469.961
482.278
474.14
450.801
429.025
415.192
410.435
411.569
416.969
423.588
429.561
434.939
439.843
444.312
448.429
452.346
456.123
459.87
463.445
466.87
469.896
472.592
474.81
476.77
478.361
479.865
481.076
482.359
483.269
484.537
485.099
486.354
281.449
304.745
292.041
273.392
268.867
272.196
280.578
288.544
293.994
297.445
298.771
298.504
296.368
291.886
283.49
271.083
252.044
225.499
194.341
176.546
298.38
436.47
476.738
437.329
422.718
444.093
478.326
458.28
459.587
461.987
475.291
485.855
503.68
502.791
495.671
481.213
429.876
477.114
504.007
453.781
366.331
259.342
237.551
293.428
314.892
322.3
330.847
319.718
244.372
138.916
123.905
136.661
139.408
209.608
320.791
346.106
512.387
606.901
624.137
556.423
547.844
577.897
561.923
442.184
246.741
297.244
323.574
313.052
260.875
239.967
214.421
259.529
278.594
246.483
276.06
320.161
347.839
367.414
358.327
313.652
277.113
255.174
290.02
350.32
412.098
450.753
460.068
451.479
430.6
412.886
403.14
401.755
405.159
412.261
419.744
426.525
432.295
437.099
441.199
444.921
448.566
452.253
456.085
459.854
463.504
466.727
469.603
471.976
474.08
475.794
477.415
478.726
480.109
481.102
482.469
483.085
484.453
281.45
304.726
292.019
273.364
268.769
272.074
280.418
288.358
293.747
297.14
298.334
297.989
295.703
290.998
282.387
269.712
250.645
224.825
197.196
174.065
220.369
395.474
476.105
503.163
519.181
532.932
546.055
567.674
573.684
583.847
605.74
604.241
583.584
530.058
450.541
382.706
404.112
478.16
471.941
439.683
397.606
373.95
340.079
317.132
313.094
312.383
319.92
300.911
199.882
156.816
149.874
159.518
169.073
179.842
238.149
293.988
464.543
586.7
625.117
570.932
563.522
613.588
589.283
492.499
283.946
311.884
340.938
333.913
294.699
269.159
240.249
232.979
230.691
230.35
296.341
326.784
359.991
384.929
365.997
319.959
277.422
247.813
267.632
317.308
367.455
399.567
409.263
406.175
397.842
393.002
392.789
395.892
402.791
410.742
418.294
424.697
429.784
433.751
437.039
440.099
443.306
446.813
450.693
454.666
458.606
462.13
465.29
467.901
470.222
472.119
473.915
475.373
476.911
478.025
479.546
480.24
481.78
281.455
304.703
291.988
273.322
268.663
271.939
280.243
288.133
293.467
296.779
297.83
297.395
294.919
289.989
281.089
268.142
248.888
223.646
198.524
184.333
175.967
257.609
394.787
465.709
506.018
534.447
559.234
595.426
634.657
648.934
620.806
529.763
412.69
323.79
317.937
343.082
425.492
462.467
445.866
439.291
527.193
560.666
548.844
519.234
479.34
373.364
257.809
197.201
171.821
156.192
148.207
180.579
210.543
210.768
209.1
214.896
331.004
528.931
606.748
586.196
590.922
616.374
582.076
486.428
287.201
336.15
370.347
372.153
320.347
283.361
249.921
237.851
241.768
276.662
319.629
348.901
380.864
400.208
374.6
321.153
266.179
211.704
196.683
236.115
286.847
323.24
348.087
364.52
374.938
382.18
388.805
395.97
403.828
411.761
418.691
423.882
427.397
429.814
431.818
433.964
436.626
439.904
443.785
447.927
452.146
455.982
459.466
462.375
464.99
467.145
469.207
470.888
472.669
473.958
475.718
476.517
478.3
281.462
304.678
291.949
273.254
268.544
271.778
280.046
287.847
293.131
296.326
297.217
296.658
293.955
288.721
279.497
266.072
246.421
220.842
198.182
190.722
188.771
227.828
327.039
388.515
427.755
465.574
489.387
524.809
562.747
586.331
573.593
523.507
456.211
389.059
362.212
378.826
420.063
416.874
429.007
562.07
667.63
656.514
654.411
639.579
603.412
450.099
286.431
277.245
260.357
258.699
267.022
278.684
280.233
280.299
280.068
275.943
263.953
313.26
514.892
560.31
569.822
574.745
536.004
456.109
287.537
306.515
356.794
363.838
314.3
276.938
263.804
262.235
270.187
294.629
340.022
375.515
392.251
393.604
368.511
298.922
253.613
234.88
245.11
275.821