/*--------------------------------*- C++ -*----------------------------------*\
| =========                 |                                                 |
| \\      /  F ield         | OpenFOAM: The Open Source CFD Toolbox           |
|  \\    /   O peration     | Version:  v2006                                 |
|   \\  /    A nd           | Website:  www.openfoam.com                      |
|    \\/     M anipulation  |                                                 |
\*---------------------------------------------------------------------------*/
FoamFile
{
    version     2.0;
    format      ascii;
    class       volScalarField;
    location    "0.52";
    object      p;
}
// * * * * * * * * * * * * * * * * * * * * * * * * * * * * * * * * * * * * * //

dimensions      [0 2 -2 0 0 0 0];


internalField   nonuniform List<scalar> 
374400
(
3.25278
3.15651
3.02919
2.95752
2.92236
2.89016
2.85232
2.80911
2.76187
2.71272
2.66303
2.61338
2.5639
2.51488
2.46673
2.41958
2.37311
2.32692
2.28332
2.24499
2.21467
2.19218
2.17484
2.16259
2.15287
2.14566
2.14088
2.13375
2.12435
2.11273
2.09668
2.0809
2.06976
2.06093
2.05438
2.05004
2.04356
2.03502
2.02449
2.00998
1.99583
1.98596
1.97817
1.97243
1.96862
1.96295
1.95552
1.94636
1.9374
1.93035
1.92167
1.91321
1.90657
1.9017
1.89847
1.89366
1.88739
1.87972
1.8693
1.85937
1.85256
1.84725
1.84337
1.84081
1.837
1.8321
1.82613
1.81813
1.81062
1.80553
1.80159
1.79874
1.79685
1.79407
1.79052
1.78624
1.78055
1.77303
1.76371
1.75322
1.74234
1.73097
1.71757
1.6998
1.67633
1.64775
1.61455
1.57738
1.5369
1.49367
1.44813
1.4006
1.35138
1.30074
1.24894
1.19618
1.14264
1.08851
1.03391
0.978937
0.923682
0.868218
0.812596
0.756859
0.701037
0.645152
0.58922
0.533253
0.47725
0.421214
0.365147
0.309053
0.252937
0.196789
0.140622
0.0845277
0.0263902
3.25542
3.15918
3.0319
2.96026
2.92513
2.89298
2.85518
2.81202
2.76481
2.71565
2.66594
2.61623
2.56662
2.51743
2.46902
2.42153
2.37463
2.32792
2.28376
2.24486
2.21407
2.1912
2.17357
2.1611
2.15121
2.14387
2.139
2.13174
2.12218
2.11035
2.09399
2.07791
2.06657
2.05758
2.05091
2.04649
2.0399
2.03121
2.02049
2.00573
1.99135
1.98132
1.97342
1.96758
1.96372
1.95797
1.95043
1.94116
1.93208
1.92495
1.91618
1.90764
1.90095
1.89604
1.89279
1.88795
1.88165
1.87394
1.86349
1.85355
1.84675
1.84145
1.83759
1.83504
1.83126
1.82639
1.82048
1.81256
1.80516
1.80015
1.79628
1.7935
1.79166
1.78894
1.78549
1.78133
1.77582
1.76858
1.75968
1.74976
1.7396
1.72903
1.71647
1.69952
1.67674
1.64867
1.61582
1.57884
1.53844
1.49521
1.4496
1.40197
1.35263
1.30186
1.24992
1.19702
1.14337
1.08912
1.03442
0.979352
0.924019
0.86849
0.812813
0.75703
0.701174
0.645263
0.58931
0.533326
0.477311
0.421265
0.365189
0.309088
0.252968
0.196811
0.140637
0.0845396
0.0263909
3.26075
3.16454
3.0373
2.96573
2.9307
2.89864
2.86095
2.81788
2.77074
2.72162
2.67187
2.62206
2.57224
2.52269
2.47377
2.4256
2.37785
2.33009
2.28476
2.24471
2.21291
2.18925
2.171
2.15809
2.14785
2.14023
2.13519
2.12765
2.11773
2.10545
2.08848
2.07179
2.06002
2.0507
2.04379
2.0392
2.03237
2.02336
2.01226
1.99698
1.98212
1.97178
1.96363
1.95763
1.95366
1.94774
1.94
1.93047
1.92118
1.91389
1.90494
1.89624
1.88944
1.88447
1.88118
1.87628
1.86991
1.86214
1.85165
1.84173
1.83497
1.82971
1.82589
1.82337
1.81963
1.81484
1.80904
1.80132
1.79417
1.78936
1.78566
1.783
1.78125
1.77866
1.7754
1.77148
1.76634
1.75968
1.75164
1.74295
1.73428
1.72536
1.71451
1.69917
1.67774
1.65066
1.61846
1.58187
1.54164
1.49841
1.45268
1.40484
1.35524
1.30419
1.25197
1.1988
1.14488
1.09039
1.03546
0.980216
0.924721
0.869052
0.813262
0.757391
0.701463
0.645495
0.589498
0.533481
0.477441
0.421375
0.365282
0.309166
0.253029
0.19686
0.140678
0.0845649
0.0263978
3.26876
3.17258
3.04541
2.97398
2.9391
2.90724
2.86974
2.82687
2.77989
2.73088
2.68115
2.63126
2.58124
2.53114
2.4815
2.43236
2.3833
2.33392
2.28674
2.24484
2.21142
2.18649
2.16722
2.15358
2.14275
2.1347
2.12935
2.12138
2.11086
2.09784
2.07983
2.06213
2.04965
2.03976
2.03244
2.02758
2.02035
2.01082
1.99907
1.98292
1.96726
1.95637
1.94782
1.94153
1.93737
1.93118
1.92308
1.91313
1.90346
1.8959
1.88664
1.87768
1.87069
1.8656
1.86224
1.85725
1.85077
1.8429
1.83232
1.82239
1.81567
1.81048
1.80673
1.80427
1.80063
1.79598
1.79038
1.78299
1.77622
1.77173
1.76832
1.76589
1.7643
1.76197
1.75905
1.75558
1.75111
1.74544
1.73891
1.73225
1.72607
1.71984
1.71174
1.69896
1.6796
1.654
1.62276
1.58668
1.54662
1.50331
1.45732
1.40913
1.35911
1.30762
1.25495
1.20136
1.14705
1.09221
1.03696
0.981438
0.92571
0.869844
0.813893
0.757892
0.701861
0.645817
0.589763
0.533701
0.477627
0.421534
0.365417
0.309279
0.253125
0.196938
0.140731
0.0845967
0.0264096
3.27942
3.18329
3.05625
2.98501
2.95041
2.91886
2.88171
2.83918
2.79254
2.74379
2.69421
2.64432
2.59399
2.54352
2.49303
2.44262
2.39185
2.34022
2.29042
2.24585
2.21004
2.18322
2.16244
2.14771
2.136
2.12728
2.1215
2.11286
2.10145
2.08732
2.06776
2.04854
2.03499
2.02428
2.01633
2.01107
2.00323
1.99291
1.9802
1.96278
1.94594
1.93428
1.92514
1.91843
1.91399
1.9074
1.89879
1.88825
1.87807
1.87013
1.86045
1.85115
1.84393
1.83869
1.83523
1.83011
1.82351
1.81553
1.8049
1.79508
1.78851
1.78347
1.77984
1.77746
1.77396
1.76954
1.76427
1.75743
1.75134
1.74739
1.74441
1.74232
1.74095
1.73894
1.7365
1.73367
1.73012
1.72588
1.72152
1.71788
1.71535
1.71305
1.70887
1.69965
1.68308
1.65941
1.62935
1.59386
1.55392
1.51041
1.46401
1.41526
1.36462
1.31248
1.25916
1.20495
1.15007
1.09471
1.03901
0.983094
0.927036
0.870894
0.814719
0.758541
0.702374
0.646228
0.590101
0.533985
0.477867
0.42174
0.365597
0.309433
0.25325
0.197037
0.140805
0.0846427
0.0264246
3.29266
3.19662
3.06977
2.99885
2.96465
2.9336
2.89702
2.85509
2.80904
2.76083
2.71164
2.66207
2.61171
2.5608
2.50952
2.45772
2.40485
2.35033
2.29701
2.2487
2.20949
2.17992
2.15694
2.1406
2.1276
2.11791
2.11146
2.10184
2.0891
2.07332
2.05145
2.02993
2.01479
2.00282
1.99395
1.98808
1.97934
1.96784
1.95369
1.93433
1.9157
1.90285
1.89281
1.88546
1.88061
1.87341
1.86402
1.85258
1.84158
1.83307
1.82274
1.81287
1.80526
1.79979
1.7962
1.7909
1.7841
1.77593
1.76516
1.75536
1.74892
1.74407
1.74064
1.73842
1.73517
1.73111
1.72634
1.72029
1.7151
1.7119
1.7096
1.70806
1.70709
1.7057
1.70409
1.70232
1.70033
1.69843
1.69747
1.69839
1.70127
1.7047
1.7061
1.70176
1.68884
1.66752
1.63875
1.60374
1.56372
1.51973
1.47262
1.42302
1.37148
1.31845
1.26427
1.20927
1.15367
1.09767
1.04141
0.985014
0.928557
0.872086
0.81565
0.759271
0.702949
0.646689
0.590484
0.534311
0.478154
0.421993
0.365823
0.309628
0.253411
0.197164
0.140901
0.0846988
0.026446
3.30837
3.21246
3.0859
3.01543
2.98184
2.95154
2.91584
2.87487
2.82983
2.78263
2.7345
2.68551
2.63559
2.58469
2.53284
2.47965
2.42442
2.36637
2.30847
2.25509
2.21112
2.17766
2.15151
2.13287
2.11799
2.10686
2.09947
2.0884
2.07374
2.05554
2.03029
2.00546
1.98801
1.97422
1.96401
1.95725
1.9472
1.934
1.91778
1.8957
1.87459
1.86012
1.84885
1.84061
1.83519
1.82716
1.81675
1.80414
1.79215
1.78294
1.77184
1.76138
1.75339
1.74769
1.74395
1.73846
1.73151
1.72327
1.71266
1.70337
1.69744
1.69301
1.68993
1.68792
1.68502
1.68153
1.67758
1.67289
1.66936
1.6674
1.66607
1.66527
1.66475
1.66407
1.66348
1.66304
1.66303
1.66415
1.66781
1.67505
1.68547
1.69672
1.70548
1.70729
1.69868
1.67994
1.6524
1.61757
1.57711
1.53224
1.48401
1.43319
1.3804
1.32614
1.2708
1.21473
1.15816
1.1013
1.04431
0.987297
0.930329
0.873448
0.816686
0.760057
0.703559
0.64718
0.590894
0.534667
0.478474
0.422287
0.366086
0.309859
0.253606
0.197319
0.141014
0.0847661
0.0264731
3.32635
3.23063
3.10446
3.03462
3.00189
2.97269
2.93828
2.89878
2.85532
2.80978
2.76329
2.71585
2.66725
2.6172
2.56563
2.51139
2.45385
2.39182
2.32815
2.26795
2.21727
2.17818
2.14738
2.12529
2.10762
2.09436
2.08554
2.07232
2.05475
2.03291
2.00256
1.97268
1.95171
1.93518
1.92295
1.91488
1.90286
1.88709
1.86777
1.84157
1.81669
1.7997
1.78653
1.77694
1.77065
1.76137
1.74938
1.73494
1.72135
1.711
1.69862
1.68708
1.67838
1.67225
1.6683
1.66252
1.65525
1.64674
1.63599
1.62684
1.62128
1.61735
1.61475
1.61314
1.61089
1.60826
1.60546
1.60252
1.60089
1.60057
1.60079
1.60125
1.60167
1.60242
1.60372
1.60572
1.60925
1.61559
1.62673
1.64383
1.66568
1.68849
1.70756
1.7174
1.71394
1.69778
1.67098
1.63586
1.59427
1.54789
1.49799
1.44542
1.39092
1.33507
1.27826
1.22086
1.16312
1.10525
1.04742
0.989694
0.932153
0.874815
0.817696
0.760811
0.704144
0.647661
0.591317
0.535057
0.478839
0.422632
0.366406
0.310144
0.253852
0.197515
0.141159
0.0848448
0.0265138
3.34629
3.25083
3.12519
3.0562
3.02464
2.99694
2.96436
2.92696
2.88587
2.84293
2.79918
2.75461
2.70863
2.66082
2.61063
2.557
2.498
2.43202
2.36151
2.29233
2.23224
2.18496
2.14725
2.12001
2.0981
2.08162
2.07061
2.05409
2.03209
2.00467
1.96651
1.92896
1.9027
1.88204
1.86682
1.85679
1.84188
1.82238
1.7986
1.76652
1.73629
1.71591
1.70022
1.68888
1.68147
1.67059
1.65665
1.64003
1.62467
1.61313
1.59955
1.58725
1.57814
1.57186
1.56782
1.56197
1.55486
1.54683
1.53734
1.53025
1.52636
1.52371
1.52209
1.52107
1.5197
1.51856
1.51779
1.51811
1.52034
1.52276
1.52497
1.52688
1.52818
1.53022
1.53352
1.53813
1.54558
1.55804
1.57873
1.60918
1.64689
1.6853
1.71746
1.73664
1.73845
1.72431
1.69732
1.66066
1.61688
1.56793
1.51555
1.4606
1.40388
1.34593
1.28721
1.22809
1.16887
1.10974
1.05085
0.992265
0.934022
0.876141
0.818622
0.761458
0.704625
0.648063
0.591694
0.535435
0.479223
0.423014
0.366768
0.310474
0.254141
0.197749
0.14133
0.084925
0.0265634
3.36697
3.27181
3.14683
3.07888
3.04878
3.023
2.99278
2.95817
2.92033
2.88109
2.84148
2.80136
2.75997
2.71688
2.67082
2.6201
2.5621
2.4937
2.41618
2.33577
2.26257
2.2032
2.15508
2.11995
2.09154
2.07006
2.05571
2.03414
2.0053
1.9693
1.91919
1.87011
1.83616
1.80957
1.79006
1.77721
1.75812
1.73323
1.70299
1.66245
1.62464
1.59931
1.57984
1.56578
1.55661
1.54315
1.526
1.50568
1.48709
1.47328
1.45726
1.44305
1.4328
1.42593
1.42164
1.41556
1.40827
1.40029
1.39127
1.38493
1.38194
1.38043
1.37987
1.37973
1.3798
1.3803
1.38167
1.38504
1.39041
1.39584
1.40118
1.40581
1.40914
1.41444
1.42193
1.432
1.4474
1.47163
1.50932
1.56259
1.62617
1.6882
1.73791
1.76759
1.77376
1.75996
1.73115
1.69147
1.64424
1.59195
1.5362
1.47812
1.41852
1.35795
1.29689
1.23574
1.17479
1.11424
1.05418
0.994656
0.935668
0.877215
0.819292
0.761889
0.704951
0.648378
0.592048
0.535845
0.479676
0.423477
0.367222
0.310895
0.254508
0.198044
0.14155
0.0850243
0.0266463
3.38687
3.29205
3.16778
3.10099
3.07253
3.04893
3.02144
2.99015
2.95625
2.92168
2.88751
2.8536
2.81928
2.78367
2.74536
2.70183
2.64921
2.58244
2.50007
2.40781
2.31794
2.24192
2.17839
2.13113
2.0925
2.06306
2.0433
2.01349
1.97361
1.92384
1.85471
1.78758
1.74172
1.70628
1.68056
1.66378
1.63899
1.6068
1.56807
1.51691
1.46998
1.43881
1.41504
1.39797
1.38685
1.37059
1.35015
1.32617
1.305
1.28963
1.27232
1.25825
1.24869
1.24275
1.23907
1.23401
1.22903
1.22469
1.22238
1.22457
1.22769
1.2305
1.23289
1.23437
1.23668
1.24089
1.2468
1.25653
1.26832
1.2773
1.28444
1.29015
1.29386
1.2995
1.30847
1.32093
1.34108
1.37481
1.43103
1.51362
1.61189
1.70397
1.77408
1.81441
1.8233
1.80722
1.77355
1.72839
1.67582
1.61871
1.55864
1.49682
1.4339
1.37044
1.30681
1.2434
1.18057
1.11849
1.0572
0.996696
0.936932
0.87789
0.819558
0.761947
0.704975
0.648481
0.592283
0.53621
0.480134
0.423979
0.367726
0.311368
0.254925
0.198379
0.141805
0.0851345
0.0267681
3.40535
3.31087
3.18732
3.12174
3.09501
3.07372
3.04918
3.02153
2.99208
2.96292
2.93525
2.90914
2.88406
2.8592
2.83303
2.80246
2.76225
2.70464
2.6234
2.52077
2.40947
2.3083
2.21987
2.15285
2.09803
2.05637
2.02875
1.98718
1.93086
1.861
1.76509
1.67512
1.61595
1.57108
1.53865
1.51739
1.48611
1.44649
1.39934
1.33782
1.28107
1.24184
1.21058
1.18719
1.17182
1.14921
1.12007
1.08552
1.05498
1.034
1.01191
0.995475
0.986054
0.981502
0.979403
0.977465
0.976704
0.978171
0.984541
0.993451
0.99938
1.00411
1.00785
1.01065
1.01481
1.01927
1.02482
1.03333
1.04409
1.05499
1.06608
1.07587
1.08321
1.095
1.11093
1.13232
1.16572
1.22055
1.31238
1.44915
1.60609
1.74156
1.83406
1.88019
1.88551
1.86279
1.82195
1.76981
1.71105
1.6486
1.58361
1.51744
1.45066
1.3838
1.31717
1.25116
1.1862
1.12248
1.05991
0.99838
0.937812
0.87818
0.819458
0.761706
0.704802
0.648502
0.592535
0.536658
0.480712
0.424616
0.368361
0.311956
0.255444
0.1988
0.14213
0.0852887
0.0269221
3.42195
3.32777
3.20491
3.14054
3.11552
3.09655
3.07499
3.05105
3.02626
3.00287
2.98238
2.96516
2.95112
2.93989
2.93035
2.91948
2.90117
2.86463
2.79628
2.69019
2.55672
2.42663
2.30905
2.21808
2.14208
2.08271
2.04257
1.98025
1.89188
1.77693
1.61664
1.47245
1.3818
1.31684
1.27384
1.24694
1.20932
1.1658
1.11953
1.06726
1.02552
0.997498
0.973354
0.95296
0.938457
0.915851
0.884473
0.844641
0.808412
0.783307
0.756685
0.738922
0.730211
0.727159
0.726079
0.726059
0.730802
0.742181
0.76866
0.804486
0.830587
0.851019
0.866129
0.875926
0.890742
0.911948
0.936637
0.960474
0.970958
0.975149
0.9768
0.977142
0.977325
0.977779
0.980718
0.988387
1.00872
1.05799
1.17152
1.37108
1.6046
1.7953
1.91555
1.96805
1.9662
1.93139
1.87799
1.81479
1.74718
1.67773
1.60766
1.53705
1.46659
1.39649
1.32691
1.25831
1.19122
1.1259
1.06219
0.999728
0.938366
0.878076
0.818921
0.761063
0.704321
0.648345
0.592727
0.537132
0.481364
0.42534
0.369082
0.312624
0.256029
0.199273
0.142504
0.0854785
0.0270962
3.43567
3.3417
3.21939
3.15612
3.13265
3.11574
3.09683
3.07629
3.05578
3.03779
3.02419
3.01567
3.01287
3.01615
3.02543
3.03887
3.05097
3.04915
3.01011
2.91017
2.75316
2.58276
2.40799
2.24763
2.09734
1.97046
1.88202
1.74736
1.57481
1.38155
1.17898
1.05346
0.997106
0.962074
0.94005
0.927981
0.912167
0.892753
0.870145
0.837877
0.799788
0.75246
0.699187
0.648283
0.611383
0.55518
0.47953
0.388509
0.322087
0.288396
0.264361
0.267045
0.284368
0.306438
0.323875
0.353211
0.399198
0.464361
0.561034
0.618059
0.625915
0.631779
0.636622
0.637002
0.629117
0.613985
0.605956
0.616184
0.630964
0.642166
0.651626
0.659401
0.664817
0.67343
0.689797
0.715735
0.763788
0.85585
1.03662
1.32447
1.63477
1.87561
2.0183
2.06789
2.05058
1.99883
1.93191
1.85814
1.78213
1.70624
1.6311
1.55658
1.48275
1.40948
1.33682
1.26536
1.19592
1.12898
1.0641
1.00087
0.938714
0.877737
0.818195
0.76023
0.703711
0.648139
0.592938
0.537661
0.482076
0.426118
0.369842
0.31331
0.256623
0.199747
0.142881
0.0856679
0.0272828
3.44589
3.35195
3.23003
3.16766
3.14543
3.1301
3.11325
3.09538
3.07827
3.06461
3.05655
3.0552
3.06169
3.07744
3.10345
3.13972
3.18313
3.22181
3.22541
3.14677
2.95991
2.69584
2.36335
2.04994
1.79745
1.62573
1.51817
1.3778
1.25061
1.13568
0.979263
0.858462
0.812374
0.773605
0.735644
0.708069
0.668765
0.638711
0.627562
0.666367
0.727382
0.708226
0.646817
0.564089
0.495421
0.377614
0.185047
-0.0793341
-0.251711
-0.314516
-0.335767
-0.28923
-0.222088
-0.150034
-0.0975208
-0.0113418
0.129409
0.326466
0.607485
0.922416
1.08211
1.13763
1.1245
1.09973
1.04297
0.936788
0.792191
0.615396
0.493602
0.428439
0.385472
0.361921
0.349692
0.336248
0.330127
0.338277
0.382114
0.508522
0.804741
1.25531
1.68488
1.98431
2.14042
2.1747
2.13273
2.05924
1.97634
1.89112
1.80714
1.72587
1.64755
1.57128
1.49571
1.42008
1.34477
1.27083
1.1995
1.13144
1.06601
1.00212
0.939274
0.8776
0.817479
0.759333
0.702987
0.647799
0.593009
0.538048
0.482646
0.426753
0.370462
0.313866
0.257099
0.200118
0.143176
0.0857946
0.027462
3.4529
3.35887
3.23716
3.17553
3.15418
3.13993
3.12452
3.10852
3.09382
3.08326
3.07913
3.08293
3.09615
3.12089
3.15931
3.21284
3.28116
3.35466
3.40155
3.35128
3.13268
2.76054
2.33301
2.00436
1.76994
1.60928
1.50564
1.38295
1.27667
1.08824
0.731915
0.497328
0.404321
0.348749
0.312001
0.29466
0.283214
0.304475
0.373691
0.600713
0.87244
0.886148
0.755445
0.507372
0.293957
-0.0545955
-0.468248
-0.859534
-0.992832
-0.982198
-0.900957
-0.776069
-0.659626
-0.561063
-0.490498
-0.368726
-0.147061
0.226535
0.799294
0.876876
0.647473
0.502894
0.428484
0.388534
0.347705
0.337506
0.349928
0.377577
0.398143
0.403802
0.40592
0.407277
0.408556
0.410458
0.414405
0.421585
0.44435
0.549852
0.838378
1.32012
1.78123
2.09716
2.24971
2.2646
2.19936
2.10614
2.0089
1.9135
1.82286
1.73829
1.65912
1.58277
1.50646
1.42901
1.35141
1.27562
1.20309
1.13439
1.06849
1.00417
0.940509
0.878039
0.817225
0.758712
0.702364
0.647417
0.59294
0.538242
0.483007
0.427184
0.370892
0.314252
0.257426
0.200361
0.14337
0.0858439
0.0276175
3.45763
3.36349
3.2419
3.18084
3.1601
3.14655
3.13214
3.11743
3.10439
3.09596
3.09454
3.10189
3.11977
3.15071
3.19769
3.26325
3.34917
3.44823
3.52987
3.49979
3.26757
2.8782
2.54349
2.28337
2.08321
1.91191
1.73468
1.45991
1.08115
0.617494
0.207108
0.174651
0.186002
0.159146
0.113136
0.0827982
0.0440491
0.0309797
0.0875762
0.390565
0.819503
0.78999
0.54132
0.162693
-0.142371
-0.619808
-1.12019
-1.46838
-1.42169
-1.26291
-1.05711
-0.8908
-0.766669
-0.657566
-0.574806
-0.440611
-0.260011
-0.0437738
0.143862
0.0521462
0.0472837
0.12105
0.215418
0.266684
0.339719
0.423055
0.500549
0.546258
0.541355
0.51933
0.494529
0.475348
0.463543
0.448395
0.447885
0.4576
0.487125
0.568269
0.864913
1.37239
1.8541
2.18239
2.33235
2.33266
2.24798
2.13904
2.03063
1.9279
1.83347
1.74754
1.6681
1.59143
1.51417
1.43533
1.35654
1.28013
1.20737
1.13842
1.07208
1.00691
0.942308
0.878552
0.816935
0.758027
0.701666
0.646936
0.592743
0.538285
0.483204
0.42745
0.371168
0.314498
0.257631
0.200503
0.143487
0.0858393
0.0277413
3.46091
3.36667
3.24515
3.18452
3.16419
3.15114
3.13742
3.12362
3.11172
3.10481
3.10529
3.11511
3.13627
3.17154
3.22445
3.29834
3.39645
3.51367
3.62027
3.60627
3.37514
3.05752
2.85726
2.62385
2.39139
2.13471
1.74185
1.05637
0.379797
0.0450033
-0.111136
0.0437074
0.114146
0.129331
0.105142
0.078875
0.0368891
0.015998
0.029286
0.360466
0.800305
0.730115
0.476129
-0.020842
-0.465108
-1.09395
-1.62849
-1.83317
-1.61956
-1.38241
-1.10571
-0.876259
-0.72057
-0.61134
-0.538337
-0.449613
-0.373615
-0.348029
-0.434986
-0.294187
0.0104898
0.347208
0.583739
0.668411
0.706029
0.712952
0.724572
0.700832
0.639206
0.571834
0.503235
0.446217
0.409282
0.369223
0.351635
0.331016
0.325768
0.429675
0.810952
1.38093
1.8944
2.23929
2.39044
2.3808
2.28195
2.16181
2.04605
1.93932
1.84322
1.75657
1.67649
1.5987
1.51999
1.43991
1.36046
1.28408
1.21155
1.14252
1.0756
1.00938
0.943531
0.878756
0.81646
0.757278
0.700963
0.646448
0.592508
0.538257
0.483305
0.427612
0.371342
0.314653
0.257759
0.200585
0.143555
0.0858091
0.0278378
3.46346
3.36914
3.24769
3.18739
3.16738
3.15472
3.14154
3.12847
3.11748
3.11174
3.11373
3.12549
3.14922
3.18788
3.24542
3.32576
3.43326
3.56459
3.69018
3.69101
3.47506
3.26437
3.23904
3.02735
2.71287
1.78346
0.885084
0.252871
-0.271181
-0.171121
-0.0779433
0.039852
0.0796295
0.0914393
0.0647649
0.0355639
-0.0133908
-0.0332607
-0.0126969
0.285845
0.702274
0.658755
0.335381
-0.459577
-1.0725
-1.52368
-1.84368
-1.63978
-1.4517
-1.32738
-1.07272
-0.827647
-0.675508
-0.558909
-0.465931
-0.396299
-0.425928
-0.620169
-0.785631
-0.288963
0.332519
0.836068
0.943619
0.902163
0.775425
0.599651
0.529482
0.522824
0.480804
0.401557
0.301695
0.192783
0.107928
0.0504294
0.0499673
0.0217756
0.0277106
0.211032
0.720563
1.36756
1.91592
2.27941
2.43436
2.41795
2.30835
2.18017
2.05947
1.95028
1.85318
1.76572
1.68457
1.60522
1.52492
1.44376
1.36389
1.28756
1.2154
1.14612
1.07862
1.01139
0.944359
0.878691
0.815854
0.756502
0.700274
0.645975
0.592267
0.538199
0.483362
0.427722
0.371464
0.314762
0.257847
0.200637
0.143598
0.0857692
0.0279167
3.46531
3.37096
3.24955
3.18948
3.16971
3.15734
3.14457
3.13202
3.1217
3.11683
3.11992
3.13312
3.15872
3.19986
3.26074
3.34569
3.45981
3.60103
3.73973
3.75219
3.55887
3.4523
3.59804
3.56248
3.44833
1.35619
-1.52715
0.0126841
-0.387299
-0.0592861
-0.0736573
0.0402507
0.0743891
0.0772785
0.0592699
0.0422417
-0.0143097
-0.0409878
-0.0434982
0.193402
0.579692
0.532823
0.232672
-1.00105
-2.32065
-1.6143
-1.88602
-1.64505
-1.47189
-1.30414
-1.03338
-0.781625
-0.665988
-0.663457
-0.414766
-0.307879
-0.43698
-0.796121
-0.870755
-0.0354345
0.857432
1.3972
0.962133
0.168277
0.476366
0.460159
0.464364
0.491944
0.455134
0.366631
0.230448
-0.0267588
-0.286371
-0.189311
-0.209497
-0.308067
-0.304208
-0.0304516
0.617354
1.33981
1.92116
2.30353
2.46443
2.4444
2.32788
2.19484
2.07116
1.96046
1.86253
1.77412
1.69162
1.61059
1.52886
1.44685
1.36669
1.29063
1.21835
1.14884
1.08078
1.01268
0.944742
0.878393
0.81519
0.755764
0.699654
0.645555
0.592044
0.538127
0.483382
0.427785
0.371538
0.314828
0.257899
0.200664
0.143619
0.0857267
0.0279736
3.4665
3.37216
3.2508
3.19084
3.17123
3.15907
3.14656
3.13436
3.12448
3.12018
3.12401
3.13814
3.16498
3.20775
3.2708
3.35874
3.47711
3.62466
3.77171
3.79076
3.6139
3.58152
3.8407
3.99344
4.08869
2.8694
0.0383075
-0.0201392
-0.045548
-0.0707116
0.128976
0.439648
0.375098
0.161163
-0.585328
-0.228104
-0.222783
-0.433033
-0.892916
-0.866434
0.198252
1.25457
1.80118
1.46948
-0.66686
-0.27065
-0.345337
-0.503314
-0.5248
-0.203924
0.538932
1.31484
1.92042
2.3172
2.48337
2.46146
2.34094
2.20506
2.07958
1.96789
1.86934
1.78018
1.69661
1.61432
1.53157
1.44897
1.36871
1.29266
1.22026
1.15055
1.08207
1.01341
0.944886
0.878107
0.814685
0.75523
0.699212
0.645255
0.591882
0.538068
0.483387
0.42782
0.371582
0.314866
0.257929
0.200677
0.143629
0.085695
0.0280101
3.46823
3.37396
3.2527
3.19284
3.17346
3.16162
3.14951
3.13782
3.12859
3.12514
3.13006
3.14559
3.17426
3.21942
3.28568
3.37798
3.50252
3.65923
3.81856
3.84641
3.703
3.78496
4.20801
4.60877
4.88173
4.56468
0.0297623
-0.03075
-0.0664832
-0.148281
0.00105531
0.165679
0.151009
0.108786
-0.128394
-0.147349
-0.158547
-0.435027
-0.992832
-0.766835
0.619589
1.83435
2.27213
2.02258
-0.293304
-0.319101
-0.505198
-0.735589
-0.829858
-0.464886
0.412855
1.26867
1.91296
2.33396
2.51023
2.48653
2.36097
2.22143
2.09347
1.98026
1.88061
1.79006
1.70458
1.62027
1.53596
1.45245
1.37206
1.29587
1.22312
1.15295
1.08378
1.01427
0.944928
0.877552
0.813839
0.754367
0.698509
0.64478
0.591621
0.537966
0.483381
0.427861
0.371636
0.314914
0.257965
0.200691
0.143636
0.0856424
0.0280627
3.47045
3.3763
3.25517
3.1954
3.17634
3.16492
3.15333
3.14231
3.13394
3.13159
3.13791
3.15526
3.18629
3.23453
3.30484
3.40259
3.53459
3.7022
3.87647
3.91765
3.82945
4.04174
4.63895
5.23854
5.65796
5.58625
0.0052028
-0.0695598
-0.145275
-0.286025
-0.243644
-0.113797
-0.0444817
0.145875
0.136669
-0.0555742
-0.0907518
-0.451473
-1.03347
-0.50027
1.17117
2.41482
2.55582
2.2486
-0.474096
-0.504025
-0.681852
-0.930543
-1.09728
-0.740802
0.255232
1.19515
1.88789
2.34767
2.54177
2.51942
2.38967
2.24645
2.11539
1.99985
1.89794
1.80482
1.71633
1.6291
1.54274
1.45824
1.3774
1.30066
1.22696
1.1557
1.0853
1.01469
0.944422
0.876436
0.812476
0.753073
0.69748
0.644085
0.591224
0.537787
0.483333
0.427877
0.371673
0.314949
0.257988
0.200687
0.143626
0.0855503
0.0281296
3.47312
3.37912
3.25817
3.19851
3.17982
3.16892
3.15797
3.14776
3.14043
3.13941
3.14745
3.167
3.20088
3.2528
3.3279
3.43189
3.57218
3.75137
3.94165
4.00179
3.9713
4.30838
5.04522
5.77098
6.26952
6.29208
-0.0512963
-0.101968
-0.214111
-0.334192
-0.331584
-0.263939
-0.126463
0.276899
0.412606
0.116105
0.0632679
-0.37713
-0.914659
-0.151132
1.66853
2.83444
2.62337
2.29099
-0.483336
-0.599103
-0.801423
-1.0359
-1.26241
-0.92802
0.0981899
1.08635
1.8458
2.35793
2.57797
2.5594
2.42706
2.28114
2.14687
2.02786
1.92214
1.82491
1.73214
1.64124
1.5523
1.46666
1.3851
1.30709
1.23166
1.15854
1.08644
1.01449
0.943305
0.874781
0.810643
0.751384
0.696145
0.643167
0.590675
0.537506
0.483214
0.42784
0.371669
0.314948
0.257981
0.200651
0.14359
0.085403
0.0282166
3.47669
3.38284
3.26209
3.20267
3.18445
3.17422
3.16414
3.15502
3.14908
3.14985
3.16018
3.18266
3.22031
3.27702
3.35818
3.46971
3.61919
3.80983
4.01713
4.10617
4.11908
4.52098
5.32567
6.11011
6.64887
6.69084
-0.0593014
-0.0484301
-0.0684285
-0.117592
-0.155347
-0.102095
0.0929292
0.627329
0.913479
0.5994
0.499174
0.0818533
-0.478047
0.0767226
1.74852
2.74025
2.30483
2.03881
-0.362191
-0.506414
-0.641106
-0.812434
-1.04806
-0.884087
0.0113639
0.959136
1.76528
2.32957
2.58651
2.59263
2.4739
2.33344
2.19781
2.07387
1.96145
1.85711
1.75736
1.66064
1.56792
1.48024
1.39714
1.3164
1.23793
1.16193
1.08729
1.01349
0.94126
0.87229
0.80812
0.749133
0.694338
0.641851
0.589803
0.53697
0.482893
0.427642
0.371537
0.314845
0.257891
0.200531
0.143488
0.0851147
0.0283613
3.48005
3.38621
3.26561
3.20654
3.18876
3.17913
3.16984
3.16174
3.1571
3.15953
3.17198
3.19717
3.23824
3.29923
3.38559
3.50304
3.65853
3.85428
4.0707
4.18856
4.18736
4.50115
5.23885
6.01272
6.5787
6.63302
0.0304876
0.0495158
0.0754091
0.027287
0.115751
0.358931
0.551141
1.01879
1.46931
0.987326
0.845458
0.485392
-0.118003
0.125916
1.53549
2.28327
1.62089
1.39992
-0.535696
-0.607025
-0.625167
-0.65538
-0.702039
-0.494107
0.143602
0.941281
1.68939
2.25275
2.54444
2.60348
2.52102
2.39205
2.25539
2.12483
2.00384
1.89073
1.78258
1.67877
1.58119
1.49022
1.40418
1.32098
1.24082
1.1637
1.08803
1.0133
0.940261
0.870827
0.806473
0.747496
0.692889
0.640664
0.588852
0.536221
0.482319
0.427203
0.371201
0.314577
0.257669
0.200297
0.143304
0.0846919
0.0285408
3.48232
3.38842
3.2679
3.20914
3.19165
3.18239
3.17363
3.16622
3.16245
3.166
3.17986
3.20685
3.25018
3.31395
3.40361
3.52455
3.68292
3.87948
4.09656
4.23879
4.21756
4.38811
4.96066
5.62758
6.17353
6.1861
-0.0705642
-0.00864831
0.0446285
0.084261
0.355219
0.795964
0.894012
1.14257
1.64598
1.04494
0.881316
0.57488
-0.00210877
0.0841945
1.18598
1.60864
0.864402
0.711318
-0.622447
-0.662167
-0.657587
-0.656964
-0.628131
-0.398709
0.228126
0.960516
1.64639
2.19898
2.52642
2.62546
2.56493
2.44107
2.30022
2.16233
2.03362
1.913
1.79789
1.68871
1.58755
1.4939
1.40589
1.32187
1.24173
1.1647
1.08904
1.014
0.940528
0.870602
0.805838
0.746664
0.69204
0.639892
0.588176
0.535636
0.48183
0.426809
0.370889
0.314324
0.257459
0.200084
0.143141
0.0843345
0.0286881
3.48404
3.3901
3.26965
3.21113
3.19384
3.18488
3.17652
3.16963
3.16653
3.17092
3.18587
3.21421
3.25925
3.32512
3.4172
3.54063
3.70073
3.89686
4.11106
4.26964
4.24629
4.27368
4.63119
5.09523
5.51877
5.33621
-0.000625893
0.0213335
0.0875442
0.231663
0.61437
1.07206
1.09171
1.13818
1.57942
0.934964
0.787143
0.536205
0.0104823
-0.0242167
0.717173
0.861068
0.185541
0.0773436
-0.662662
-0.667587
-0.640765
-0.639906
-0.579688
-0.333976
0.247734
0.960527
1.61512
2.16724
2.52308
2.65182
2.60472
2.48155
2.33507
2.19026
2.05494
1.92817
1.80788
1.6951
1.59178
1.49661
1.4075
1.32299
1.24282
1.16581
1.0901
1.01486
0.941023
0.870659
0.805528
0.746141
0.691452
0.639325
0.587656
0.535163
0.481416
0.426463
0.370608
0.314093
0.257267
0.199893
0.142992
0.084029
0.0288052
3.48526
3.3913
3.27088
3.21253
3.19539
3.18664
3.17858
3.17206
3.16943
3.17443
3.19014
3.21945
3.2657
3.33302
3.42678
3.55189
3.71298
3.9083
4.11892
4.28355
4.27833
4.20628
4.34483
4.51635
4.77698
3.58993
-0.577626
0.0936412
0.276918
0.462915
0.832171
1.15185
1.17015
1.17795
1.53253
0.726722
0.651142
0.457048
-0.00996868
-0.130426
0.33276
0.335613
-0.276925
-0.51385
-0.698368
-0.652153
-0.651368
-0.636267
-0.555309
-0.296381
0.257825
0.948714
1.59605
2.15238
2.52759
2.67359
2.63269
2.50801
2.35686
2.20699
2.06712
1.93645
1.81328
1.69875
1.59454
1.49881
1.40922
1.32444
1.24414
1.16701
1.09112
1.01564
0.941518
0.870834
0.805424
0.745852
0.691092
0.638955
0.5873
0.534826
0.481106
0.426192
0.370383
0.313904
0.257109
0.199738
0.142871
0.0837911
0.0288854
3.48603
3.39209
3.27171
3.21342
3.19639
3.18779
3.17991
3.17363
3.17131
3.1767
3.1929
3.22284
3.26986
3.33814
3.43297
3.55914
3.72084
3.91554
4.12343
4.28963
4.30318
4.18423
4.17517
4.1069
4.09617
1.92273
-1.57155
-0.297037
-0.293047
0.533889
1.04431
1.20357
1.14303
0.993743
0.614162
0.147986
0.350552
0.503213
0.66457
0.964924
1.14657
1.18829
1.13484
1.21512
0.93836
0.848856
0.680553
0.505222
0.521232
0.533155
0.548677
0.467285
0.543045
0.345818
0.577343
0.555025
0.399993
-0.0186482
-0.190911
0.0962509
0.026333
-0.527695
-0.962984
-1.33516
-0.788835
-1.01231
-1.12536
-1.14536
-0.898922
-0.809503
-0.76802
-0.905273
-0.715915
-0.645744
-0.673608
-0.638095
-0.53892
-0.272876
0.262325
0.93676
1.58335
2.14391
2.5305
2.6864
2.64861
2.52269
2.36882
2.21605
2.07361
1.94086
1.81626
1.7009
1.59634
1.50035
1.41054
1.32559
1.24516
1.16791
1.09185
1.01618
0.941869
0.87098
0.805389
0.745695
0.690882
0.638732
0.58708
0.534612
0.480905
0.426012
0.37023
0.313776
0.257
0.199633
0.142784
0.0836372
0.0289295
3.48711
3.39325
3.27296
3.21471
3.19783
3.18945
3.18185
3.17592
3.17405
3.18
3.19693
3.22777
3.27593
3.34557
3.44197
3.56968
3.7322
3.92587
4.12894
4.29409
4.33463
4.1755
3.96974
3.63315
3.24845
2.30479
1.25759
0.387943
0.143761
0.618493
1.062
1.20001
1.17365
1.10446
1.02825
0.959223
0.902685
0.898614
1.01804
1.11695
1.10879
1.1536
1.08952
0.999757
0.879702
0.70654
0.536462
0.449945
0.512901
0.537537
0.55238
0.473134
0.528027
0.495284
0.518443
0.449617
0.32469
-0.0295435
-0.271461
-0.218641
-0.360954
-0.751605
-0.821491
-0.779189
-0.76927
-0.943224
-1.11961
-1.13865
-0.88939
-0.736523
-0.730236
-0.788959
-0.716324
-0.658452
-0.715661
-0.630915
-0.497192
-0.231284
0.267406
0.914401
1.56391
2.13283
2.5344
2.70122
2.66668
2.53923
2.38237
2.22622
2.08074
1.94565
1.81957
1.70344
1.59871
1.50265
1.41269
1.32756
1.24694
1.16937
1.093
1.01703
0.94242
0.871234
0.805381
0.745506
0.690609
0.638427
0.586772
0.534304
0.48061
0.425742
0.369998
0.313579
0.256833
0.199473
0.142647
0.083414
0.0289796
3.48846
3.39472
3.27453
3.2163
3.19963
3.19153
3.18428
3.17879
3.17747
3.18413
3.20197
3.23394
3.28352
3.35486
3.45319
3.5828
3.74636
3.93863
4.13449
4.29178
4.35146
4.22406
3.90684
3.48395
3.04972
2.69362
2.27883
1.64016
1.31173
1.22471
1.22482
1.31728
1.39919
1.46157
1.47972
1.44621
1.33639
1.26366
1.34727
1.22264
1.09004
1.06696
0.991351
0.84539
0.695792
0.473617
0.326933
0.306974
0.444665
0.506096
0.51879
0.478735
0.489987
0.469095
0.474532
0.394209
0.28985
-0.013987
-0.316533
-0.465844
-0.638556
-0.851604
-0.763646
-0.703018
-0.744319
-0.894682
-1.07706
-1.09893
-0.882864
-0.711454
-0.669603
-0.689077
-0.681869
-0.703819
-0.715202
-0.580859
-0.401751
-0.157688
0.267541
0.869281
1.52599
2.10445
2.51696
2.69841
2.67355
2.5487
2.39145
2.23297
2.08503
1.94801
1.82083
1.70486
1.60079
1.50535
1.41567
1.33054
1.24965
1.17158
1.09462
1.01816
0.943162
0.871615
0.805459
0.745384
0.690382
0.638151
0.586453