/*--------------------------------*- C++ -*----------------------------------*\
| =========                 |                                                 |
| \\      /  F ield         | OpenFOAM: The Open Source CFD Toolbox           |
|  \\    /   O peration     | Version:  v2006                                 |
|   \\  /    A nd           | Website:  www.openfoam.com                      |
|    \\/     M anipulation  |                                                 |
\*---------------------------------------------------------------------------*/
FoamFile
{
    version     2.0;
    format      ascii;
    class       volScalarField;
    location    "0.49";
    object      k;
}
// * * * * * * * * * * * * * * * * * * * * * * * * * * * * * * * * * * * * * //

dimensions      [0 2 -2 0 0 0 0];


internalField   nonuniform List<scalar> 
374400
(
0.0965329
0.115588
0.107188
0.0960215
0.0953053
0.0987941
0.107015
0.115237
0.122385
0.128544
0.134348
0.13987
0.145356
0.15082
0.156321
0.161764
0.167291
0.172889
0.178342
0.183367
0.187599
0.190898
0.193543
0.195469
0.197032
0.19822
0.199007
0.200211
0.201833
0.203881
0.206801
0.20976
0.211897
0.213611
0.214906
0.215759
0.217057
0.218793
0.220968
0.224034
0.227081
0.229252
0.230969
0.232254
0.233093
0.234369
0.236056
0.238152
0.240213
0.241847
0.243861
0.245853
0.247418
0.248581
0.249338
0.250487
0.252004
0.253872
0.256451
0.258955
0.260722
0.262103
0.263133
0.263799
0.264815
0.266152
0.267798
0.270069
0.272268
0.273817
0.275024
0.275922
0.2765
0.277384
0.278547
0.27998
0.281943
0.284665
0.288266
0.292448
0.296665
0.300528
0.303959
0.306906
0.309298
0.311201
0.312778
0.314121
0.315278
0.316281
0.317162
0.317937
0.318616
0.319202
0.319706
0.320134
0.320496
0.3208
0.321049
0.321251
0.321409
0.32153
0.321624
0.321697
0.321754
0.321799
0.321838
0.321871
0.321902
0.32193
0.321962
0.321988
0.322023
0.322056
0.32208
0.322279
0.321985
0.0965341
0.115586
0.107184
0.0960146
0.0952947
0.0987804
0.106996
0.115217
0.122366
0.128526
0.134336
0.139865
0.145362
0.150841
0.15636
0.161828
0.167381
0.17301
0.178497
0.183552
0.187809
0.191127
0.193783
0.19572
0.197289
0.198482
0.199274
0.200482
0.202112
0.204167
0.207098
0.210065
0.212208
0.213928
0.215225
0.216079
0.21738
0.21912
0.221299
0.224369
0.227419
0.22959
0.231308
0.232593
0.233431
0.234706
0.236392
0.238487
0.240546
0.242178
0.244188
0.246176
0.247738
0.248898
0.249653
0.250798
0.25231
0.254172
0.256741
0.259233
0.260992
0.262366
0.26339
0.264052
0.265061
0.266391
0.268028
0.270283
0.272469
0.274007
0.275206
0.276097
0.276671
0.277548
0.278702
0.280124
0.282072
0.284774
0.288348
0.292497
0.296681
0.300515
0.30392
0.306851
0.309238
0.311143
0.312729
0.314087
0.31526
0.31628
0.317178
0.31797
0.318663
0.319262
0.319776
0.320212
0.320581
0.320889
0.321141
0.321342
0.3215
0.32162
0.321712
0.321784
0.32184
0.321886
0.321923
0.321955
0.321988
0.322015
0.322046
0.322074
0.322109
0.322144
0.322169
0.322369
0.322074
0.0965359
0.115579
0.107173
0.0959951
0.0952683
0.0987505
0.106959
0.115175
0.122325
0.128492
0.134311
0.139856
0.145376
0.150887
0.156449
0.161968
0.167582
0.173281
0.178839
0.183962
0.188273
0.19163
0.194316
0.196272
0.197857
0.199062
0.199861
0.20108
0.202724
0.204797
0.207748
0.210736
0.212891
0.214619
0.215924
0.216781
0.218088
0.219835
0.222023
0.2251
0.228153
0.230327
0.232044
0.233328
0.234165
0.235439
0.237122
0.239212
0.241264
0.24289
0.24489
0.246867
0.248419
0.249571
0.250321
0.251456
0.252957
0.254803
0.257347
0.259811
0.261548
0.262904
0.263914
0.264567
0.265563
0.266874
0.268486
0.270707
0.272855
0.274366
0.275544
0.276419
0.276982
0.277844
0.278977
0.280372
0.282285
0.284934
0.288434
0.292497
0.296593
0.300348
0.303694
0.306586
0.308958
0.310871
0.312477
0.313862
0.315071
0.316131
0.317067
0.317894
0.318617
0.319242
0.319778
0.320232
0.320613
0.320929
0.321184
0.321386
0.321539
0.321656
0.321744
0.321811
0.321863
0.321903
0.321938
0.321967
0.321997
0.322024
0.322056
0.322082
0.322118
0.322151
0.322177
0.322378
0.322084
0.0965385
0.115571
0.107156
0.0959621
0.0952226
0.098697
0.10689
0.115098
0.122246
0.128418
0.13425
0.139816
0.14537
0.150926
0.156552
0.162152
0.167863
0.173674
0.179352
0.184586
0.188988
0.192412
0.195149
0.19714
0.198753
0.199977
0.200789
0.202028
0.203695
0.205796
0.208786
0.211809
0.213987
0.215731
0.217045
0.217911
0.219227
0.220986
0.223188
0.22628
0.229342
0.231518
0.233235
0.234517
0.235353
0.236623
0.238301
0.240382
0.242423
0.244038
0.246023
0.247982
0.249517
0.250656
0.251395
0.252516
0.253995
0.255813
0.258314
0.260733
0.262434
0.26376
0.264746
0.265383
0.266353
0.26763
0.2692
0.271361
0.27345
0.274917
0.276058
0.276905
0.277449
0.278282
0.279378
0.280726
0.282576
0.28514
0.288528
0.292456
0.296416
0.300053
0.303308
0.306147
0.308504
0.310435
0.312082
0.313522
0.31479
0.31591
0.316906
0.317786
0.318557
0.319223
0.319791
0.320271
0.320668
0.320991
0.321246
0.321441
0.321586
0.321692
0.321769
0.321826
0.321867
0.321899
0.321929
0.321954
0.321981
0.322005
0.322035
0.322063
0.3221
0.322134
0.322162
0.322367
0.322074
0.0965425
0.115556
0.107129
0.0959094
0.0951479
0.0986095
0.106778
0.114967
0.122105
0.128277
0.13412
0.139707
0.1453
0.150915
0.156625
0.162337
0.168187
0.174165
0.180022
0.185429
0.189973
0.193503
0.196322
0.198368
0.200025
0.20128
0.202112
0.203382
0.205088
0.207237
0.210288
0.213364
0.215578
0.217348
0.218681
0.219558
0.220892
0.222671
0.224894
0.22801
0.231084
0.233264
0.234982
0.236262
0.237097
0.238364
0.240035
0.242105
0.244129
0.245729
0.24769
0.249622
0.251133
0.252251
0.252977
0.254077
0.255526
0.257303
0.259741
0.262087
0.263733
0.265013
0.265966
0.266579
0.267515
0.268746
0.270255
0.272326
0.274319
0.275717
0.276803
0.27761
0.278128
0.278924
0.279969
0.281254
0.283012
0.285444
0.288653
0.292371
0.296121
0.299583
0.30271
0.305478
0.307825
0.309791
0.311497
0.313015
0.314371
0.315583
0.316662
0.317618
0.318455
0.319179
0.319795
0.320309
0.320729
0.321063
0.321322
0.321514
0.32165
0.321746
0.32181
0.321854
0.321885
0.321908
0.32193
0.321948
0.321971
0.321992
0.322022
0.322048
0.322085
0.32212
0.322149
0.322354
0.322064
0.0965492
0.115534
0.107088
0.0958288
0.0950325
0.0984736
0.106599
0.114755
0.12187
0.12803
0.133871
0.139472
0.145104
0.150781
0.156594
0.162447
0.168487
0.1747
0.18082
0.186486
0.19125
0.194948
0.197893
0.20003
0.201755
0.203062
0.203927
0.205245
0.207015
0.209239
0.212388
0.215553
0.217825
0.219638
0.221001
0.221896
0.223256
0.225066
0.227326
0.230481
0.233581
0.235771
0.237492
0.238771
0.239604
0.240866
0.242528
0.244582
0.246583
0.248162
0.250091
0.251985
0.253462
0.254551
0.255256
0.256322
0.257723
0.259438
0.261783
0.264026
0.265593
0.266803
0.267699
0.268274
0.26915
0.270299
0.271708
0.273641
0.275497
0.276792
0.277794
0.278536
0.279009
0.279737
0.280693
0.281871
0.283489
0.285732
0.288702
0.292141
0.295624
0.298867
0.301841
0.304542
0.306897
0.308923
0.310718
0.312345
0.313816
0.315143
0.316335
0.317395
0.318323
0.319122
0.319799
0.320357
0.320802
0.321147
0.321401
0.32158
0.321698
0.321772
0.321815
0.321838
0.321851
0.321862
0.321874
0.321888
0.321908
0.321929
0.321959
0.321987
0.322029
0.322068
0.322101
0.32231
0.322024
0.0965587
0.115503
0.107028
0.0957109
0.0948616
0.0982702
0.10633
0.114429
0.121495
0.127621
0.133437
0.139031
0.144686
0.150417
0.15634
0.162367
0.168644
0.175181
0.181677
0.18773
0.192831
0.196788
0.199932
0.202208
0.204042
0.205429
0.206346
0.207741
0.209611
0.211956
0.215259
0.218561
0.220921
0.2228
0.224207
0.225131
0.226531
0.22839
0.230704
0.233913
0.237044
0.239245
0.240968
0.242246
0.243076
0.244333
0.245983
0.248017
0.249987
0.251537
0.253419
0.255257
0.256683
0.257732
0.25841
0.259434
0.260775
0.262408
0.26462
0.266705
0.268151
0.269265
0.270088
0.270615
0.271422
0.272476
0.273758
0.275495
0.277137
0.278281
0.279165
0.279823
0.280243
0.280893
0.281745
0.282789
0.284212
0.286175
0.288753
0.291764
0.294834
0.297755
0.300542
0.303186
0.305578
0.307718
0.309663
0.31145
0.313089
0.314573
0.315906
0.317093
0.318134
0.319027
0.319773
0.320378
0.320857
0.321216
0.321472
0.32164
0.321738
0.321788
0.321804
0.321804
0.321798
0.321794
0.321795
0.321802
0.32182
0.321841
0.321872
0.321904
0.321949
0.321991
0.32203
0.322243
0.321963
0.0965721
0.115459
0.106945
0.0955455
0.0946193
0.0979798
0.105942
0.11395
0.12093
0.12698
0.132732
0.138273
0.143911
0.149664
0.155681
0.161889
0.16846
0.175413
0.182452
0.189085
0.194712
0.199086
0.202556
0.205064
0.207079
0.208596
0.209601
0.211123
0.213155
0.215693
0.219248
0.222774
0.22528
0.227262
0.228739
0.229706
0.231167
0.233098
0.235486
0.238776
0.241957
0.244178
0.245908
0.247184
0.248011
0.249261
0.250898
0.252909
0.254846
0.256363
0.258196
0.259977
0.261348
0.262348
0.262989
0.263954
0.265206
0.266722
0.268757
0.270639
0.271917
0.272876
0.27357
0.274006
0.274666
0.275521
0.276554
0.277961
0.279279
0.280183
0.280861
0.28136
0.281672
0.282155
0.282794
0.283592
0.284705
0.286276
0.288391
0.290888
0.293522
0.296159
0.298783
0.301403
0.303878
0.306191
0.308307
0.31025
0.312046
0.313695
0.315204
0.316567
0.31777
0.318799
0.31965
0.320332
0.320855
0.32123
0.321477
0.321618
0.321678
0.321683
0.321662
0.321629
0.321601
0.321582
0.321577
0.321583
0.321604
0.321631
0.321674
0.321714
0.321772
0.321823
0.321874
0.3221
0.321836
0.096591
0.1154
0.106833
0.095325
0.0942872
0.0975823
0.105405
0.113272
0.120114
0.126027
0.131641
0.137057
0.142597
0.148289
0.154332
0.160691
0.167572
0.175058
0.182819
0.190336
0.1968
0.201844
0.205853
0.208747
0.211065
0.212806
0.213957
0.215696
0.218005
0.220872
0.224836
0.228713
0.23144
0.233575
0.235152
0.23618
0.237723
0.239745
0.242225
0.245596
0.248806
0.251025
0.25274
0.254
0.254813
0.256041
0.257642
0.259602
0.261474
0.262933
0.264681
0.266359
0.267639
0.268566
0.269158
0.270051
0.271201
0.272577
0.274365
0.275945
0.276997
0.277781
0.278347
0.278705
0.279256
0.279951
0.280762
0.28177
0.282626
0.283194
0.283619
0.283936
0.284134
0.284454
0.28487
0.285372
0.286031
0.28694
0.28817
0.289738
0.291529
0.2936
0.296024
0.298705
0.301462
0.304108
0.306526
0.3087
0.310638
0.312486
0.314247
0.315846
0.317238
0.318409
0.319368
0.320129
0.320704
0.321105
0.321349
0.321463
0.321481
0.321446
0.321378
0.321313
0.321264
0.321235
0.32123
0.321242
0.321277
0.321319
0.321381
0.321436
0.321515
0.321582
0.321652
0.321899
0.321662
0.0966124
0.115328
0.106696
0.0950475
0.0938719
0.0970791
0.104719
0.1124
0.119027
0.124726
0.130105
0.135276
0.140576
0.146059
0.151962
0.158338
0.165446
0.173493
0.182216
0.190979
0.198726
0.204944
0.209876
0.213425
0.216261
0.218382
0.219782
0.221886
0.22466
0.228077
0.232736
0.237176
0.240244
0.242596
0.244301
0.245402
0.247035
0.249121
0.251632
0.254928
0.258021
0.26015
0.261798
0.263025
0.263819
0.265032
0.266635
0.26863
0.270571
0.272094
0.273943
0.27573
0.277089
0.278062
0.278672
0.279578
0.280709
0.282023
0.283657
0.284955
0.285702
0.286131
0.286363
0.286469
0.286593
0.286699
0.286756
0.286773
0.286715
0.286608
0.286469
0.286361
0.286273
0.286169
0.286058
0.285986
0.285988
0.286048
0.286356
0.287088
0.28838
0.290287
0.292693
0.295597
0.298764
0.301637
0.304031
0.306293
0.308409
0.310467
0.312534
0.314449
0.316116
0.31751
0.318648
0.319544
0.320209
0.320655
0.320898
0.320978
0.320956
0.320861
0.320748
0.320658
0.320604
0.32059
0.32061
0.32066
0.32074
0.320819
0.320927
0.321017
0.321141
0.321242
0.321352
0.321639
0.32146
0.0966382
0.115249
0.106539
0.094746
0.0933963
0.0965059
0.103935
0.111379
0.117733
0.12315
0.12816
0.132978
0.137825
0.142902
0.148346
0.154468
0.161514
0.169855
0.179476
0.189714
0.199153
0.206795
0.213083
0.217709
0.221434
0.224235
0.226087
0.228874
0.232518
0.236986
0.242854
0.248107
0.251525
0.254001
0.255704
0.256779
0.258321
0.260235
0.262457
0.265238
0.267678
0.269309
0.270549
0.271493
0.272105
0.273071
0.274387
0.276097
0.277834
0.27923
0.280944
0.282608
0.283874
0.284803
0.285387
0.286299
0.287457
0.288853
0.290588
0.292002
0.292922
0.293624
0.294123
0.294446
0.294994
0.295578
0.295992
0.295996
0.295401
0.294521
0.293764
0.293195
0.292813
0.292261
0.291532
0.290617
0.289413
0.287951
0.28618
0.28449
0.284081
0.285077
0.287615
0.291322
0.295216
0.298339
0.300622
0.303004
0.305383
0.307714
0.310122
0.31238
0.314328
0.315941
0.317274
0.31836
0.319187
0.319744
0.320048
0.320143
0.320106
0.319976
0.31985
0.319772
0.319755
0.319789
0.319889
0.320009
0.320166
0.320308
0.320488
0.320636
0.320831
0.320982
0.321151
0.321499
0.3214
0.0966655
0.115164
0.106378
0.0944322
0.0928854
0.095901
0.103081
0.11029
0.116294
0.121374
0.125895
0.13026
0.13439
0.138793
0.143427
0.148735
0.155082
0.163025
0.172956
0.184353
0.195788
0.20561
0.214281
0.220494
0.225551
0.229276
0.231684
0.235202
0.239498
0.24443
0.24973
0.253364
0.25525
0.256307
0.256895
0.257221
0.257666
0.258097
0.258578
0.258718
0.258556
0.258165
0.257794
0.257677
0.25768
0.257742
0.25795
0.25852
0.259377
0.260007
0.260832
0.261947
0.263146
0.264296
0.265093
0.266521
0.268651
0.271803
0.276204
0.279741
0.281691
0.2827
0.28317
0.283346
0.283465
0.283388
0.283122
0.28363
0.284352
0.284646
0.284699
0.284654
0.284562
0.284426
0.284223
0.283865
0.283164
0.282051
0.280157
0.278148
0.277768
0.279122
0.282273
0.286894
0.29126
0.294051
0.295833
0.297919
0.300507
0.303172
0.305976
0.308748
0.311157
0.313179
0.314883
0.316327
0.317458
0.318232
0.318683
0.318871
0.318882
0.318793
0.318713
0.318699
0.318771
0.318927
0.319155
0.319393
0.319665
0.319911
0.320191
0.320424
0.320706
0.320922
0.321172
0.321575
0.321564
0.09669
0.115084
0.10622
0.0941221
0.0923696
0.0953019
0.102195
0.109226
0.114777
0.119517
0.123485
0.127227
0.130524
0.133893
0.137329
0.141032
0.145644
0.151854
0.160574
0.171999
0.185564
0.196984
0.207662
0.215961
0.221722
0.225546
0.227823
0.231127
0.234472
0.23909
0.240651
0.239404
0.237272
0.234395
0.231852
0.230041
0.227186
0.223306
0.218409
0.212331
0.208394
0.206261
0.205997
0.206206
0.206581
0.207738
0.209774
0.21339
0.217936
0.222246
0.227864
0.233158
0.237068
0.240027
0.241521
0.24432
0.248166
0.251093
0.259325
0.271678
0.281813
0.290965
0.297724
0.302111
0.30873
0.315714
0.319506
0.318174
0.31123
0.304766
0.300293
0.297389
0.295539
0.293161
0.2905
0.287318
0.282811
0.276471
0.269058
0.263639
0.263068
0.26649
0.273222
0.279878
0.284866
0.286962
0.287605
0.289168
0.292216
0.295683
0.299415
0.303241
0.306504
0.309155
0.311394
0.313333
0.314924
0.316102
0.316882
0.317319
0.31748
0.317481
0.317482
0.317551
0.317769
0.318063
0.318446
0.318829
0.319242
0.319609
0.320002
0.320327
0.320701
0.320982
0.321313
0.321752
0.321836
0.0967105
0.115019
0.106087
0.0938404
0.0919144
0.0947535
0.101423
0.108241
0.113383
0.117836
0.121176
0.124333
0.126747
0.128884
0.130845
0.132372
0.13415
0.136885
0.142375
0.153174
0.166615
0.184253
0.204104
0.223827
0.24219
0.259103
0.273811
0.29909
0.338107
0.382153
0.403302
0.399702
0.391314
0.378197
0.367011
0.359265
0.347064
0.33087
0.30703
0.269118
0.240001
0.227497
0.227403
0.228802
0.231356
0.238697
0.252628
0.273679
0.296402
0.313342
0.330023
0.342102
0.349267
0.352843
0.354803
0.356789
0.358191
0.360085
0.359498
0.350995
0.333077
0.31213
0.297865
0.288987
0.278888
0.272897
0.273056
0.274438
0.274893
0.275603
0.276617
0.277676
0.278536
0.280089
0.282074
0.283597
0.282807
0.277776
0.264775
0.250632
0.245965
0.249844
0.258601
0.267606
0.273603
0.275181
0.274851
0.27553
0.278609
0.28295
0.287688
0.292643
0.296863
0.300312
0.303431
0.30638
0.309031
0.311241
0.312955
0.314155
0.314871
0.315251
0.315541
0.315862
0.316314
0.316832
0.317424
0.31799
0.318562
0.319058
0.319566
0.319979
0.32044
0.320779
0.321184
0.321648
0.321819
0.0967236
0.114976
0.106003
0.0935995
0.0915776
0.0943056
0.100867
0.107401
0.112341
0.116426
0.119403
0.121892
0.123663
0.124769
0.125003
0.124661
0.123183
0.121445
0.122776
0.130827
0.154707
0.2038
0.301545
0.388801
0.454838
0.503792
0.529643
0.573285
0.613792
0.643261
0.632374
0.6041
0.572892
0.547272
0.529047
0.517618
0.501608
0.482695
0.447982
0.375983
0.309415
0.271161
0.255797
0.256121
0.258079
0.265408
0.28604
0.314508
0.348523
0.373673
0.395902
0.417111
0.428369
0.428018
0.425771
0.414017
0.371477
0.325723
0.241904
0.159127
0.128087
0.112771
0.10316
0.0971232
0.0909925
0.0886743
0.0909708
0.100423
0.115682
0.129259
0.141707
0.151559
0.15818
0.16874
0.183011
0.19955
0.219465
0.238013
0.24083
0.234965
0.233905
0.240055
0.250557
0.25925
0.262928
0.26221
0.259001
0.256508
0.256912
0.260269
0.265341
0.270839
0.276632
0.282567
0.288634
0.294521
0.299833
0.304327
0.307891
0.31042
0.312012
0.312946
0.313599
0.31418
0.314854
0.315566
0.31633
0.317039
0.31773
0.318317
0.3189
0.319367
0.319883
0.320251
0.320702
0.321171
0.321393
0.0967308
0.114956
0.105951
0.0934311
0.0913318
0.0939968
0.100473
0.106815
0.111619
0.115394
0.118166
0.120162
0.121388
0.121727
0.120867
0.118901
0.114814
0.108639
0.105206
0.117002
0.178792
0.335423
0.463958
0.524406
0.558159
0.581393
0.591359
0.618618
0.627119
0.613422
0.571725
0.524596
0.491853
0.469515
0.452648
0.443416
0.430697
0.400175
0.337304
0.248643
0.17309
0.173448
0.187735
0.213111
0.232545
0.276474
0.333809
0.390079
0.451282
0.450017
0.414117
0.33633
0.254922
0.2055
0.188635
0.166283
0.119714
0.0913414
0.107956
0.159191
0.176179
0.174126
0.172788
0.171296
0.165655
0.156311
0.144829
0.133536
0.129827
0.130755
0.135081
0.140325
0.144101
0.149945
0.158756
0.170649
0.191134
0.216349
0.227689
0.225115
0.2239
0.229686
0.238572
0.248691
0.253001
0.251474
0.245908
0.238847
0.235322
0.23534
0.23812
0.24323
0.250423
0.260543
0.272242
0.283213
0.292569
0.299954
0.305317
0.308782
0.310734
0.311731
0.31236
0.312939
0.31366
0.31445
0.315306
0.316095
0.316851
0.31748
0.318098
0.318584
0.31912
0.319493
0.31997
0.32043
0.320679
0.0967343
0.114951
0.105909
0.0933252
0.0911508
0.0937945
0.100203
0.106416
0.111138
0.114678
0.117286
0.119039
0.119736
0.119601
0.118126
0.114868
0.108783
0.0996699
0.0919162
0.114612
0.24532
0.397239
0.478095
0.445005
0.390474
0.3879
0.409368
0.417258
0.406552
0.376366
0.353692
0.319057
0.292037
0.270917
0.246135
0.226679
0.193126
0.151326
0.14083
0.123847
0.11239
0.13336
0.179823
0.216721
0.253058
0.284828
0.368731
0.437587
0.426067
0.373718
0.2319
0.107931
0.0799799
0.0800677
0.0866634
0.100541
0.123248
0.172861
0.290033
0.352754
0.336113
0.299259
0.253245
0.236538
0.220349
0.211649
0.203188
0.191186
0.18632
0.18668
0.190059
0.195457
0.199579
0.204906
0.212092
0.218263
0.225209
0.231682
0.228707
0.215039
0.209052
0.211047
0.217718
0.232234
0.240083
0.242419
0.240254
0.234153
0.228395
0.224958
0.224526
0.227774
0.236399
0.249618
0.265361
0.279716
0.291329
0.299921
0.305643
0.308897
0.310394
0.310959
0.31133
0.311812
0.312542
0.31339
0.314314
0.315154
0.31595
0.3166
0.317236
0.317727
0.31828
0.318655
0.319154
0.319603
0.31988
0.0967382
0.114948
0.105874
0.0932467
0.0910275
0.0936575
0.100022
0.106133
0.110798
0.114199
0.116626
0.118299
0.118537
0.118152
0.116191
0.112023
0.104615
0.0932436
0.0830681
0.124282
0.279397
0.396595
0.360904
0.30913
0.293608
0.323937
0.361472
0.354624
0.327131
0.291492
0.249312
0.174099
0.119982
0.0818264
0.0741987
0.0774263
0.0841384
0.0706729
0.0649377
0.112887
0.124918
0.146058
0.163936
0.192827
0.229887
0.263644
0.358649
0.361916
0.274509
0.157252
0.0956254
0.0772552
0.0836982
0.097953
0.112482
0.141959
0.20355
0.321007
0.412576
0.42872
0.382622
0.342674
0.270982
0.243493
0.220479
0.215299
0.212591
0.203832
0.201082
0.20304
0.208736
0.217564
0.224273
0.235466
0.25122
0.266847
0.273384
0.261051
0.234319
0.203078
0.189872
0.188795
0.199087
0.219123
0.233019
0.24292
0.245283
0.240486
0.232121
0.226357
0.224811
0.227851
0.237278
0.251922
0.268619
0.283053
0.294215
0.302129
0.306991
0.309305
0.310009
0.310081
0.310219
0.310649
0.311437
0.312361
0.313353
0.314237
0.315061
0.315726
0.316377
0.316878
0.317445
0.317825
0.318347
0.318784
0.319095
0.0967439
0.114943
0.105841
0.0931769
0.0909353
0.0935511
0.0998823
0.10591
0.110518
0.113837
0.116095
0.117696
0.117623
0.117005
0.114647
0.10979
0.101413
0.0882651
0.0768748
0.131611
0.287735
0.36257
0.31502
0.262096
0.245037
0.304109
0.322746
0.258901
0.184516
0.122163
0.0668295
0.0508103
0.0523971
0.0531109
0.0608788
0.0740221
0.0774063
0.0547891
0.0799047
0.133402
0.141888
0.124345
0.195448
0.28107
0.306349
0.295849
0.281357
0.172763
0.100013
0.0842216
0.076765
0.0749757
0.0937242
0.110849
0.129978
0.181015
0.288776
0.422938
0.492984
0.439228
0.391821
0.353973
0.256527
0.203616
0.139517
0.123875
0.126989
0.130767
0.13858
0.150929
0.169907
0.187365
0.202558
0.226744
0.252459
0.284035
0.306662
0.294571
0.245073
0.19154
0.1693
0.169709
0.188613
0.21396
0.234971
0.251804
0.256107
0.251042
0.241016
0.234126
0.232584
0.23654
0.246915
0.261334
0.276978
0.28947
0.298471
0.304601
0.308017
0.309215
0.309225
0.308962
0.308973
0.309424
0.310325
0.311342
0.312404
0.313326
0.314176
0.314855
0.315521
0.316032
0.316618
0.317007
0.317553
0.317981
0.318329
0.0967515
0.114921
0.1058
0.0931196
0.0908641
0.0934651
0.0997721
0.105743
0.110303
0.113569
0.115705
0.117213
0.116999
0.11615
0.113495
0.108152
0.0991076
0.084692
0.0731992
0.136971
0.288647
0.341879
0.257198
0.214024
0.198819
0.281381
0.287042
0.175949
0.0903692
0.0429501
0.025659
0.0309031
0.0288471
0.0292776
0.0478223
0.0654514
0.0742961
0.051712
0.107578
0.15078
0.141692
0.276962
0.316076
0.350192
0.325389
0.15457
0.0895123
0.0820892
0.0653526
0.059173
0.0556309
0.056985
0.0705231
0.0866743
0.0991342
0.184184
0.336524
0.476088
0.530866
0.429216
0.376363
0.331575
0.180326
0.155676
0.0686911
0.0513073
0.0514948
0.0547818
0.066683
0.0806581
0.105368
0.124781
0.154484
0.20004
0.239985
0.280636
0.32349
0.31356
0.252223
0.180604
0.152855
0.157696
0.184861
0.213884
0.239551
0.257392
0.262322
0.257632
0.247827
0.241428
0.240508
0.245291
0.255992
0.269809
0.284332
0.294943
0.301944
0.306212
0.308137
0.308401
0.308006
0.307596
0.307658
0.308253
0.30929
0.310406
0.311528
0.312483
0.313355
0.314048
0.314731
0.315257
0.315862
0.316259
0.316831
0.317249
0.317636
0.0967527
0.114917
0.105791
0.0930962
0.0908183
0.0934063
0.0996938
0.105635
0.11016
0.113391
0.11545
0.116883
0.116593
0.115595
0.112733
0.107095
0.0976218
0.082432
0.0712396
0.139486
0.283111
0.326348
0.239208
0.198305
0.183929
0.229161
0.0593424
0.0715716
0.0583587
0.13001
0.165725
0.183611
0.342612
0.325164
0.332709
0.0562887
0.159485
0.358316
0.500507
0.543606
0.411556
0.353206
0.290095
0.141339
0.10834
0.141819
0.210537
0.270309
0.335696
0.330964
0.261294
0.173331
0.141751
0.151924
0.183624
0.213499
0.240369
0.258353
0.263834
0.260702
0.252263
0.246444
0.245787
0.250667
0.261102
0.274192
0.288074
0.298018
0.303783
0.306807
0.307755
0.307544
0.306877
0.306485
0.306638
0.307381
0.308527
0.309716
0.310882
0.311861
0.312748
0.313452
0.314149
0.314687
0.315305
0.315711
0.316301
0.316721
0.317125
0.0967509
0.11492
0.105795
0.0930741
0.09075
0.0933167
0.0995748
0.105477
0.109951
0.113129
0.115079
0.116388
0.115991
0.114782
0.111605
0.105558
0.0954636
0.0792019
0.0681864
0.141378
0.275646
0.304793
0.200759
0.16496
0.152577
0.177708
0.05207
0.069292
0.0662882
0.145983
0.181349
0.302639
0.379111
0.329156
0.324407
0.0421446
0.151267
0.387667
0.526778
0.550923
0.385423
0.325454
0.254701
0.117083
0.0494492
0.0602731
0.101378
0.202994
0.32472
0.341583
0.265528
0.162962
0.125865
0.147954
0.180352
0.209794
0.237619
0.256506
0.264201
0.264048
0.258841
0.254284
0.253704
0.25799
0.267492
0.279041
0.29157
0.30066
0.305296
0.306745
0.306552
0.305637
0.30479
0.304524
0.304909
0.305939
0.307271
0.308582
0.309816
0.310832
0.311745
0.31247
0.313192
0.31375
0.314395
0.314819
0.315432
0.315867
0.316285
0.0967535
0.114901
0.105773
0.0930324
0.0906536
0.0931948
0.0994148
0.10527
0.109675
0.112779
0.114603
0.115738
0.115206
0.113734
0.110146
0.103598
0.0927522
0.0753323
0.0645414
0.142038
0.262894
0.281386
0.176953
0.142899
0.131109
0.131652
0.055087
0.0755677
0.065223
0.131229
0.175245
0.354003
0.392766
0.329412
0.323513
0.0446651
0.156798
0.422029
0.548724
0.547195
0.341494
0.279689
0.213388
0.10198
0.0541588
0.0571687
0.0644717
0.0906465
0.223297
0.314476
0.252904
0.130936
0.116552
0.145177
0.17172
0.198903
0.226552
0.248629
0.262468
0.267184
0.267023
0.264784
0.263823
0.266171
0.272551
0.282128
0.293304
0.301087
0.303969
0.303905
0.302673
0.301406
0.300874
0.301104
0.302165
0.30366
0.305298
0.30678
0.308111
0.309181
0.310139
0.310905
0.311673
0.312272
0.312962
0.313418
0.314075
0.31453
0.314984
0.0967583
0.114878
0.10574
0.0929782
0.0905413
0.0930542
0.0992223
0.105022
0.109341
0.112348
0.114039
0.114949
0.114256
0.112482
0.108422
0.101334
0.0897195
0.071314
0.0598979
0.136949
0.246307
0.257725
0.151282
0.115562
0.100928
0.097183
0.0580364
0.0792927
0.0775099
0.0733264
0.188658
0.343265
0.361683
0.314545
0.332218
0.0717019
0.184997
0.460609
0.573995
0.501359
0.299957
0.247058
0.206268
0.115649
0.0636239
0.0716193
0.0689507
0.0738324
0.0932853
0.171437
0.161601
0.103538
0.103377
0.126907
0.150199
0.179094
0.215803
0.244439
0.262017
0.27207
0.276377
0.277039
0.275208
0.273744
0.275206
0.281172
0.289728
0.295499
0.297163
0.296518
0.2951
0.294455
0.2948
0.296183
0.298221
0.300355
0.302397
0.304107
0.305569
0.306723
0.307763
0.308603
0.309452
0.310118
0.310881
0.31139
0.312116
0.3126
0.31312
0.0967655
0.114852
0.105693
0.0928978
0.090398
0.0928766
0.0989746
0.104693
0.108903
0.111764
0.113306
0.113898
0.112999
0.110845
0.1062
0.0984864
0.086132
0.0669469
0.0536507
0.124811
0.23039
0.242429
0.1382
0.103406
0.0861148
0.0766065
0.0504172
0.0735398
0.0741612
0.105506
0.264466
0.262818
0.289886
0.259888
0.300323
0.0866107
0.186235
0.463382
0.571831
0.472107
0.287359
0.239346
0.222094
0.151419
0.0648056
0.0702663
0.0607974
0.151497
0.187537
0.186709
0.143721
0.112401
0.0922236
0.0892871
0.114433
0.160588
0.210541
0.247636
0.269447
0.281548
0.286746
0.286801
0.283209
0.278027
0.274932
0.275859
0.279025
0.280863
0.281304
0.281385
0.2819
0.283381
0.2858
0.288751
0.29186
0.294734
0.29729
0.299345
0.301071
0.302436
0.303668
0.304676
0.305685
0.306484
0.307379
0.307986
0.308842
0.309369
0.310032
0.0967714
0.114835
0.105657
0.0928072
0.0902697
0.0927177
0.0987567
0.104385
0.108503
0.111211
0.112632
0.112917
0.111839
0.109347
0.104204
0.0960199
0.0833439
0.0641664
0.0477043
0.103888
0.217544
0.241163
0.148613
0.107799
0.0911269
0.0829227
0.0365576
0.0517654
0.084537
0.273109
0.361539
0.208352
0.215078
0.21271
0.247952
0.0860772
0.155625
0.438684
0.557097
0.477262
0.299548
0.261453
0.25614
0.203122
0.0751791
0.076303
0.0656258
0.12761
0.186146
0.210142
0.16493
0.103578
0.0740325
0.0694556
0.105557
0.163416
0.22561
0.268259
0.287423
0.291741
0.291644
0.288654
0.280837
0.272334
0.267428
0.265344
0.263262
0.262234
0.262839
0.265382
0.269035
0.27307
0.277089
0.280948
0.284661
0.287999
0.290966
0.293397
0.295477
0.297152
0.298661
0.299897
0.301111
0.302078
0.303139
0.303869
0.304895
0.305461
0.306327
0.0967765
0.114827
0.105632
0.0927363
0.0901898
0.0926158
0.0986188
0.104175
0.108235
0.110842
0.112181
0.112265
0.111068
0.108354
0.102901
0.0944553
0.0817358
0.0630651
0.0447395
0.0840339
0.206231
0.243932
0.167774
0.121533
0.10632
0.103012
0.0330332
0.0748327
0.203671
0.361803
0.381799
0.195623
0.145507
0.178377
0.205648
0.0971117
0.153935
0.417677
0.541869
0.485498
0.324918
0.301973
0.301889
0.255923
0.0898842
0.0900282
0.0618322
0.0990801
0.148804
0.172263
0.169568
0.106461
0.0736895
0.0741378
0.112575
0.174541
0.24142
0.286781
0.299124
0.295082
0.282368
0.269637
0.25918
0.252347
0.250072
0.249453
0.248527
0.248886
0.251638
0.256241
0.261388
0.266337
0.270863
0.275025
0.278977
0.282569
0.285829
0.288559
0.290931
0.292857
0.294586
0.296002
0.29738
0.298482
0.299677
0.300508
0.301676
0.302269
0.303321
0.0967822
0.114821
0.105607
0.0926785
0.090129
0.0925433
0.0985127
0.104021
0.108023
0.110569
0.111825
0.111781
0.110479
0.107605
0.101902
0.0933534
0.0805314
0.062618
0.043662
0.0649557
0.189042
0.24831
0.199145
0.146818
0.133963
0.134115
0.089947
0.179158
0.276299
0.381948
0.356451
0.196194
0.097822
0.158721
0.186527
0.113393
0.154004
0.397553
0.526189
0.499845
0.351302
0.330435
0.336139
0.297925
0.100281
0.103511
0.0585581
0.120118
0.147723
0.162549
0.16436
0.114762
0.0814899
0.0818962
0.118041
0.180982
0.249698
0.294232
0.302912
0.289626
0.264031
0.244986
0.233837
0.230236
0.231299
0.234296
0.236851
0.240293
0.245009
0.250479
0.255955
0.261027
0.265675
0.269963
0.274073
0.277873
0.281382
0.284366
0.28698
0.289112
0.291027
0.292594
0.294113
0.295333
0.296647
0.29757
0.298864
0.299482
0.300705
0.0967891
0.114802
0.105569
0.0926336
0.0900781
0.0924871
0.0984274
0.103914
0.107862
0.110377
0.111555
0.111452
0.11005
0.107061
0.101183
0.0925912
0.0796804
0.0624342
0.0434801
0.0528184
0.169327
0.248789
0.231775
0.172256
0.159218
0.192626
0.23557
0.259256
0.297035
0.373167
0.317694
0.183457
0.0742215
0.156286
0.196615
0.127467
0.154575
0.382617
0.513635
0.514461
0.371937
0.351031
0.369912
0.330383
0.109059
0.109544
0.0676895
0.132598
0.15227
0.162759
0.161783
0.121045
0.0901128
0.0875577
0.121672
0.183122
0.252025
0.294913
0.29854
0.278335
0.248287
0.227398
0.217107
0.215396
0.218504
0.224511
0.230146
0.235658
0.241276
0.24684
0.252088
0.256961
0.261562
0.265938
0.270187
0.274155
0.277854
0.28102
0.283808
0.286089
0.288141
0.289824
0.291454
0.292768
0.294179
0.295176
0.29658
0.297222
0.298586
0.09679
0.114798
0.105561
0.0926191
0.090045
0.092448
0.0983676
0.103844
0.10776
0.110252
0.111376
0.111239
0.109773
0.106706
0.10073
0.0920951
0.0791724
0.0623099
0.0438911
0.0449173
0.153982
0.247494
0.249692
0.199202
0.180615
0.216622
0.265424
0.149174
0.119378
0.119126
0.116592
0.120694
0.141402
0.189529
0.226434
0.277934
0.269116
0.298194
0.349622
0.297093
0.179539
0.067134
0.137465
0.181187
0.1583
0.133485
0.130296
0.101477
0.0291659
0.0101081
0.0097965
0.0117966
0.017064
0.0502417
0.125699
0.153751
0.371947
0.50816
0.520489
0.382129
0.361415
0.391669
0.362599
0.19694
0.0680132
0.0668761
0.0937338
0.102833
0.0669069
0.0533769
0.0468897
0.0647681
0.113772
0.108128
0.0848932
0.135963
0.153843
0.16579
0.161858
0.125288
0.0957905
0.0905074
0.122598
0.1824
0.249027
0.287259
0.288343
0.266449
0.237107
0.217388
0.208606
0.207849
0.212099
0.219597
0.226718
0.233177
0.239104
0.244534
0.249514
0.254181
0.258702