/*--------------------------------*- C++ -*----------------------------------*\
| =========                 |                                                 |
| \\      /  F ield         | OpenFOAM: The Open Source CFD Toolbox           |
|  \\    /   O peration     | Version:  v2006                                 |
|   \\  /    A nd           | Website:  www.openfoam.com                      |
|    \\/     M anipulation  |                                                 |
\*---------------------------------------------------------------------------*/
FoamFile
{
    version     2.0;
    format      ascii;
    class       volScalarField;
    location    "0.52";
    object      k;
}
// * * * * * * * * * * * * * * * * * * * * * * * * * * * * * * * * * * * * * //

dimensions      [0 2 -2 0 0 0 0];


internalField   nonuniform List<scalar> 
374400
(
0.0965283
0.114818
0.106105
0.0945332
0.0934384
0.0967766
0.10486
0.113347
0.120717
0.126988
0.132783
0.138235
0.143555
0.148802
0.154096
0.159346
0.164629
0.169947
0.175068
0.179711
0.183574
0.186565
0.188954
0.190694
0.192102
0.193179
0.193897
0.19498
0.196452
0.198314
0.200976
0.203687
0.205652
0.207228
0.208425
0.20922
0.210414
0.212022
0.214039
0.21689
0.219742
0.221788
0.223407
0.224629
0.225435
0.226641
0.228251
0.230256
0.232236
0.23381
0.23575
0.237679
0.239192
0.240325
0.24107
0.242178
0.243654
0.245476
0.247995
0.250448
0.252188
0.253543
0.254562
0.255232
0.256227
0.257552
0.259185
0.261447
0.263651
0.265216
0.266432
0.267348
0.267949
0.268841
0.270026
0.271495
0.27352
0.276358
0.280204
0.284819
0.289644
0.294239
0.298465
0.302193
0.305253
0.307673
0.309643
0.311286
0.312681
0.313875
0.31491
0.315816
0.316608
0.317297
0.317891
0.318396
0.318825
0.319188
0.31949
0.319738
0.319936
0.32009
0.320211
0.320304
0.320376
0.320431
0.320479
0.320516
0.32055
0.320579
0.320612
0.320638
0.320671
0.320702
0.320725
0.320911
0.320633
0.0965295
0.114816
0.106101
0.0945264
0.0934277
0.0967633
0.104841
0.113326
0.120698
0.12697
0.132771
0.13823
0.143561
0.148823
0.154135
0.159409
0.164719
0.170068
0.175221
0.179895
0.183782
0.186792
0.189193
0.190944
0.192358
0.19344
0.194161
0.19525
0.196729
0.198599
0.201271
0.20399
0.205962
0.207542
0.208743
0.20954
0.210736
0.212347
0.214367
0.217223
0.220079
0.222126
0.223745
0.224967
0.225773
0.226978
0.228587
0.23059
0.232567
0.23414
0.236076
0.238002
0.23951
0.24064
0.241384
0.242488
0.243959
0.245775
0.248285
0.250727
0.252457
0.253806
0.25482
0.255486
0.256474
0.25779
0.259415
0.261663
0.263853
0.265406
0.266614
0.267524
0.26812
0.269005
0.270181
0.271638
0.273647
0.276466
0.280285
0.284866
0.289657
0.294222
0.298424
0.302137
0.305193
0.307616
0.309593
0.311251
0.31266
0.31387
0.314923
0.315847
0.316655
0.317356
0.31796
0.318475
0.318913
0.31928
0.319587
0.319835
0.320034
0.320186
0.320304
0.320396
0.320467
0.320523
0.320568
0.320604
0.32064
0.320669
0.3207
0.320728
0.320761
0.320792
0.320815
0.321004
0.320726
0.0965313
0.11481
0.10609
0.094507
0.0934004
0.0967326
0.104804
0.113284
0.120655
0.126934
0.132744
0.13822
0.143574
0.148867
0.154221
0.159547
0.164918
0.170336
0.175561
0.180303
0.184245
0.187294
0.189725
0.191496
0.192926
0.194019
0.194749
0.195849
0.197341
0.199229
0.201923
0.204662
0.206647
0.208236
0.209443
0.210244
0.211446
0.213064
0.215093
0.217958
0.220817
0.222866
0.224485
0.225707
0.226512
0.227717
0.229322
0.231322
0.233293
0.23486
0.236786
0.238701
0.240201
0.241323
0.242062
0.243157
0.244616
0.246417
0.248903
0.251319
0.253029
0.25436
0.25536
0.256017
0.256993
0.258291
0.259892
0.262106
0.264259
0.265785
0.266972
0.267866
0.268452
0.269321
0.270478
0.271909
0.273881
0.276647
0.280392
0.284884
0.289582
0.294064
0.298203
0.301873
0.304911
0.307338
0.309333
0.311015
0.312459
0.313707
0.314798
0.315758
0.316599
0.317327
0.317957
0.318491
0.318943
0.319322
0.319633
0.319883
0.32008
0.320229
0.320343
0.320429
0.320495
0.320546
0.320587
0.32062
0.320652
0.32068
0.320712
0.320737
0.320772
0.320803
0.320826
0.321014
0.320736
0.0965339
0.114801
0.106073
0.0944742
0.093353
0.0966783
0.104735
0.113205
0.120573
0.126857
0.132681
0.138178
0.143566
0.148903
0.154321
0.159727
0.165195
0.170726
0.17607
0.180924
0.184957
0.188074
0.190556
0.192362
0.19382
0.194933
0.195675
0.196794
0.198312
0.200229
0.202962
0.205737
0.207744
0.20935
0.210568
0.211375
0.212588
0.214218
0.216261
0.219141
0.222012
0.224064
0.225685
0.226906
0.22771
0.228912
0.230513
0.232503
0.234464
0.23602
0.237932
0.239831
0.241315
0.242424
0.243154
0.244235
0.245673
0.247449
0.249894
0.252265
0.253941
0.255244
0.256221
0.256862
0.257813
0.259077
0.260637
0.262791
0.264887
0.266371
0.267521
0.268387
0.268955
0.269794
0.270912
0.272295
0.274204
0.276883
0.280512
0.284866
0.289421
0.293778
0.297819
0.301432
0.304451
0.306891
0.308921
0.310655
0.312154
0.313462
0.314612
0.315627
0.316519
0.317292
0.317956
0.318522
0.318996
0.319387
0.319702
0.31995
0.320139
0.320279
0.32038
0.320456
0.320511
0.32055
0.320585
0.320612
0.32064
0.320665
0.320693
0.320719
0.320754
0.320786
0.32081
0.321003
0.320727
0.0965381
0.114786
0.106046
0.0944218
0.0932759
0.0965894
0.104623
0.113072
0.120428
0.126712
0.132548
0.138066
0.143492
0.148888
0.154388
0.159905
0.165512
0.171209
0.176734
0.18176
0.185936
0.189158
0.191722
0.193584
0.195086
0.196232
0.196995
0.198144
0.199701
0.201666
0.20446
0.207289
0.209332
0.210964
0.212201
0.21302
0.214249
0.2159
0.217966
0.22087
0.223755
0.225812
0.227434
0.228655
0.229458
0.230658
0.232254
0.234234
0.236179
0.23772
0.23961
0.241483
0.242944
0.244035
0.244751
0.245813
0.247224
0.248961
0.251346
0.253647
0.255272
0.256531
0.257476
0.258096
0.259015
0.260236
0.261739
0.263807
0.265808
0.267225
0.268322
0.269149
0.26969
0.270494
0.271562
0.272884
0.274702
0.27725
0.280696
0.284831
0.289163
0.293331
0.297232
0.300764
0.303763
0.306231
0.308315
0.310121
0.311703
0.313101
0.314337
0.315431
0.316392
0.317228
0.317944
0.318549
0.319052
0.319462
0.319785
0.320034
0.320216
0.320346
0.320437
0.320498
0.32054
0.320569
0.320595
0.320613
0.320636
0.320654
0.320682
0.320707
0.320741
0.320773
0.320798
0.32099
0.320717
0.0965448
0.114764
0.106004
0.094342
0.0931569
0.0964512
0.104445
0.112858
0.120188
0.126459
0.132295
0.137826
0.143291
0.148748
0.154349
0.160006
0.165802
0.171733
0.17752
0.182806
0.187201
0.190591
0.193281
0.195234
0.196804
0.198001
0.198797
0.199996
0.201616
0.203656
0.20655
0.209468
0.21157
0.213244
0.214511
0.21535
0.216605
0.218287
0.220389
0.223335
0.226248
0.228319
0.229945
0.231165
0.231967
0.233162
0.234749
0.236714
0.238639
0.240161
0.242021
0.243859
0.245288
0.246352
0.247049
0.248079
0.249445
0.251124
0.253424
0.255631
0.257181
0.258375
0.259266
0.25985
0.260712
0.261855
0.263262
0.265199
0.267068
0.268385
0.269398
0.27016
0.270658
0.271392
0.272369
0.273581
0.275256
0.27761
0.280808
0.284651
0.288696
0.292628
0.296367
0.299826
0.302828
0.30535
0.307515
0.309421
0.31111
0.312616
0.313963
0.315162
0.316219
0.317135
0.317923
0.318583
0.319123
0.319552
0.31988
0.320121
0.320289
0.320398
0.320465
0.320505
0.320525
0.320538
0.320549
0.320561
0.320578
0.320596
0.320621
0.320646
0.320684
0.32072
0.320749
0.320946
0.320676
0.0965547
0.114732
0.105943
0.0942252
0.0929811
0.0962448
0.104177
0.112531
0.119807
0.126043
0.131856
0.13738
0.142867
0.148378
0.154084
0.159914
0.165946
0.1722
0.17836
0.18403
0.188761
0.192409
0.195299
0.19739
0.199069
0.200344
0.201194
0.202469
0.204188
0.20635
0.209396
0.212452
0.214641
0.216381
0.217691
0.218558
0.219854
0.221583
0.223739
0.226741
0.229687
0.23177
0.233398
0.234616
0.235416
0.236606
0.23818
0.240125
0.242018
0.243512
0.245327
0.247111
0.248492
0.249517
0.250188
0.25118
0.252491
0.254093
0.25627
0.258333
0.259773
0.260878
0.261705
0.262247
0.263047
0.264105
0.265398
0.267156
0.268826
0.27
0.270903
0.271586
0.272034
0.272697
0.273578
0.274663
0.276147
0.278225
0.281021
0.284402
0.288
0.29157
0.295087
0.298469
0.301497
0.304119
0.306424
0.308481
0.310332
0.311992
0.313478
0.314805
0.31598
0.317002
0.317873
0.318592
0.319174
0.319627
0.319966
0.320203
0.320354
0.320442
0.320483
0.320494
0.320491
0.320486
0.320481
0.320484
0.320494
0.320512
0.320536
0.320564
0.320604
0.320643
0.320677
0.320879
0.320614
0.096568
0.114688
0.105859
0.0940614
0.0927322
0.0959507
0.10379
0.11205
0.119236
0.125393
0.131144
0.136616
0.142086
0.147616
0.153412
0.15942
0.165744
0.17241
0.179108
0.185355
0.190609
0.194672
0.197885
0.200206
0.202066
0.203473
0.204408
0.20581
0.207692
0.210045
0.213341
0.216618
0.218952
0.220794
0.222174
0.223084
0.224439
0.22624
0.228473
0.231559
0.234557
0.236659
0.238292
0.239508
0.240304
0.241484
0.243042
0.244961
0.246819
0.248278
0.250042
0.25177
0.253097
0.254076
0.254713
0.255648
0.256877
0.258372
0.260396
0.262288
0.263586
0.264558
0.265273
0.265735
0.266404
0.267285
0.268355
0.269817
0.271193
0.272144
0.27285
0.273376
0.273715
0.274209
0.27487
0.275696
0.276857
0.278518
0.280802
0.283605
0.286686
0.289933
0.293302
0.296688
0.299806
0.302593
0.305064
0.307265
0.309246
0.311047
0.312693
0.31419
0.315534
0.316708
0.317701
0.318517
0.319164
0.319653
0.319998
0.32022
0.320341
0.320382
0.320381
0.320354
0.320319
0.320291
0.320275
0.320272
0.320281
0.320301
0.320335
0.320371
0.320422
0.32047
0.320517
0.320732
0.320482
0.0965868
0.114628
0.105745
0.0938438
0.0923923
0.0955477
0.103257
0.111372
0.118414
0.124431
0.130045
0.135391
0.140765
0.146236
0.15205
0.158204
0.164838
0.172033
0.179446
0.186567
0.192655
0.197381
0.201128
0.203832
0.205992
0.20762
0.208701
0.210318
0.212472
0.215152
0.218855
0.222478
0.225029
0.227021
0.2285
0.229472
0.23091
0.232805
0.235135
0.238303
0.241326
0.243419
0.245031
0.246223
0.247002
0.248151
0.249662
0.251513
0.253289
0.254676
0.256337
0.257946
0.25917
0.260069
0.260653
0.26151
0.262632
0.263987
0.265774
0.267391
0.268491
0.269319
0.269936
0.270338
0.270932
0.271703
0.272619
0.273779
0.274782
0.275459
0.275958
0.276337
0.276585
0.27695
0.277423
0.277989
0.278725
0.279721
0.281051
0.282796
0.284914
0.287479
0.290576
0.293984
0.297354
0.300468
0.303229
0.305663
0.307782
0.309745
0.311621
0.313365
0.31492
0.316261
0.317382
0.318293
0.319005
0.319534
0.319894
0.320103
0.320189
0.320192
0.320145
0.320071
0.320008
0.319958
0.319935
0.319934
0.319951
0.319984
0.320035
0.320086
0.320159
0.320223
0.320288
0.320522
0.320301
0.0966083
0.114556
0.105607
0.093569
0.0919673
0.0950393
0.102574
0.110501
0.117322
0.123119
0.1285
0.133604
0.138739
0.144004
0.149673
0.155837
0.162705
0.170454
0.178806
0.187145
0.194478
0.200358
0.205004
0.208351
0.211018
0.213017
0.214343
0.216316
0.218927
0.222151
0.226543
0.230733
0.233646
0.235879
0.237503
0.238561
0.240103
0.242083
0.244464
0.247581
0.250493
0.252499
0.254039
0.255187
0.25594
0.257057
0.258537
0.260368
0.262143
0.263529
0.265196
0.266821
0.268055
0.268954
0.269533
0.270372
0.271456
0.272745
0.274429
0.275884
0.27681
0.277424
0.277818
0.278053
0.278341
0.278663
0.278997
0.279381
0.279627
0.279716
0.279721
0.279709
0.279673
0.279598
0.279534
0.279484
0.279498
0.279541
0.279658
0.280156
0.281481
0.28388
0.28714
0.290891
0.294728
0.298128
0.300888
0.303315
0.305535
0.307653
0.309793
0.311844
0.313689
0.315272
0.316592
0.317659
0.318488
0.31909
0.319478
0.319675
0.319722
0.319679
0.319566
0.319455
0.319368
0.319318
0.319311
0.319333
0.319394
0.319463
0.319564
0.31965
0.319766
0.319863
0.31997
0.320245
0.32008
0.0966339
0.114477
0.105448
0.0932707
0.0914833
0.0944594
0.101793
0.109484
0.116021
0.121538
0.126546
0.131299
0.135985
0.140851
0.146067
0.151962
0.158788
0.16681
0.175998
0.185758
0.19476
0.202024
0.20801
0.212412
0.215957
0.21863
0.220403
0.223056
0.226528
0.230787
0.236383
0.241401
0.244665
0.247023
0.248656
0.249695
0.251166
0.253004
0.255142
0.25783
0.260167
0.261706
0.26285
0.26371
0.264274
0.265125
0.266292
0.267767
0.269221
0.270378
0.271761
0.273089
0.274066
0.274785
0.275246
0.275931
0.276821
0.277901
0.279331
0.280641
0.281594
0.282385
0.283031
0.283466
0.284158
0.28509
0.286178
0.287241
0.287774
0.287913
0.287855
0.287659
0.28747
0.287176
0.286686
0.285945
0.284735
0.283041
0.280864
0.27852
0.277668
0.278754
0.281963
0.286524
0.291161
0.294948
0.297624
0.300058
0.302444
0.30478
0.307218
0.309618
0.311779
0.313613
0.315138
0.316397
0.3174
0.318139
0.31862
0.318864
0.318918
0.318853
0.318708
0.318585
0.318515
0.318502
0.318548
0.318644
0.318784
0.318918
0.319091
0.319234
0.319424
0.319572
0.319738
0.320076
0.319993
0.0966609
0.114392
0.105282
0.0929634
0.0909622
0.0938479
0.100944
0.108396
0.11458
0.11976
0.124269
0.128573
0.132564
0.136737
0.141181
0.146255
0.152384
0.16
0.169497
0.180421
0.191426
0.20088
0.209219
0.215217
0.220077
0.223645
0.225952
0.22929
0.233329
0.237934
0.242724
0.245881
0.247485
0.248364
0.248878
0.249164
0.249572
0.249982
0.250541
0.251162
0.251452
0.251556
0.251584
0.251581
0.251598
0.251674
0.251868
0.252196
0.252565
0.252755
0.252697
0.252556
0.252478
0.252517
0.252609
0.252893
0.253605
0.255128
0.258325
0.261812
0.264298
0.265992
0.267033
0.267638
0.268362
0.269191
0.270011
0.271502
0.273506
0.274924
0.275906
0.276526
0.276885
0.277352
0.277832
0.278141
0.278043
0.276912
0.274387
0.271029
0.270075
0.271908
0.276482
0.282289
0.287584
0.291211
0.29332
0.295213
0.297639
0.300198
0.302911
0.305778
0.308414
0.310681
0.312586
0.314209
0.315544
0.316544
0.317213
0.317587
0.317725
0.317697
0.317592
0.31751
0.317505
0.317577
0.317754
0.317966
0.318225
0.318464
0.318742
0.318975
0.319255
0.319471
0.319723
0.320117
0.320126
0.0966852
0.114312
0.10512
0.0926613
0.0904335
0.0932449
0.100062
0.107331
0.113075
0.117891
0.121859
0.125534
0.12871
0.131853
0.135116
0.138624
0.143031
0.148955
0.157359
0.168446
0.18174
0.192974
0.203286
0.211172
0.216551
0.220089
0.222199
0.225197
0.228274
0.232463
0.233281
0.23188
0.22953
0.226686
0.224308
0.22266
0.220083
0.216669
0.212757
0.207685
0.204701
0.20336
0.203551
0.203991
0.204562
0.205979
0.208455
0.2119
0.215379
0.218034
0.220916
0.223323
0.22472
0.225744
0.226438
0.227103
0.228808
0.230004
0.233167
0.240379
0.247879
0.255579
0.262202
0.266747
0.274082
0.284175
0.295969
0.305089
0.307566
0.307118
0.30459
0.301839
0.300164
0.297768
0.294801
0.291669
0.28687
0.278861
0.267634
0.257278
0.254082
0.257417
0.26612
0.275001
0.281514
0.284773
0.285704
0.286664
0.289021
0.29222
0.295745
0.299607
0.303271
0.306327
0.308846
0.310984
0.312785
0.314206
0.315239
0.315924
0.316295
0.316392
0.31638
0.316364
0.31645
0.316656
0.316974
0.317328
0.317732
0.318099
0.318497
0.318826
0.319205
0.319491
0.31983
0.320259
0.320373
0.096706
0.114246
0.104987
0.0923826
0.089971
0.0926936
0.0992867
0.106356
0.11168
0.1162
0.119569
0.122615
0.12496
0.126882
0.128644
0.13008
0.131687
0.134315
0.139689
0.150561
0.164074
0.181025
0.200051
0.219321
0.23708
0.254467
0.269177
0.294751
0.334616
0.376509
0.395515
0.391225
0.382039
0.369084
0.358515
0.351455
0.340554
0.326517
0.308313
0.277074
0.251531
0.237236
0.234731
0.235471
0.237028
0.242015
0.252918
0.26957
0.285927
0.297866
0.308811
0.315432
0.318549
0.319638
0.320015
0.319815
0.318937
0.317226
0.3181
0.320766
0.320336
0.314493
0.30256
0.291726
0.275321
0.258753
0.253196
0.256773
0.265453
0.271064
0.274711
0.27716
0.278689
0.280891
0.283464
0.285637
0.285352
0.280651
0.264816
0.245836
0.237238
0.241027
0.251942
0.262961
0.270505
0.273469
0.273414
0.273354
0.275012
0.278802
0.283196
0.288127
0.292988
0.297017
0.300407
0.303458
0.30624
0.30867
0.310697
0.312284
0.313384
0.313999
0.314338
0.314578
0.314909
0.315324
0.315854
0.316399
0.316974
0.317482
0.318006
0.318433
0.318907
0.319255
0.319674
0.32013
0.320338
0.0967198
0.114198
0.104907
0.092137
0.0896335
0.0922445
0.0987254
0.105528
0.110635
0.114782
0.117807
0.120187
0.121844
0.12285
0.122836
0.122427
0.120954
0.119241
0.120801
0.129353
0.152502
0.200159
0.297357
0.384495
0.450255
0.497995
0.524915
0.568115
0.606512
0.631207
0.618038
0.584564
0.549821
0.521733
0.501779
0.489287
0.472064
0.450981
0.423751
0.365462
0.307963
0.276257
0.261716
0.261849
0.263513
0.270378
0.289409
0.321476
0.351018
0.3732
0.391963
0.399762
0.397871
0.394476
0.390266
0.381605
0.358941
0.311652
0.232183
0.147873
0.119823
0.110218
0.103236
0.0973368
0.0886185
0.0829082
0.0828935
0.0892314
0.102287
0.113639
0.124069
0.132391
0.137983
0.147048
0.160063
0.176637
0.197235
0.218519
0.22567
0.220024
0.221379
0.231008
0.245454
0.256612
0.261872
0.261879
0.259192
0.255585
0.254479
0.25606
0.26038
0.265516
0.271253
0.277312
0.283439
0.289443
0.295063
0.300066
0.304316
0.30767
0.310012
0.311431
0.312267
0.312818
0.313373
0.313979
0.314682
0.315378
0.316086
0.3167
0.317309
0.317796
0.31833
0.318712
0.319181
0.319642
0.319904
0.0967274
0.114176
0.104856
0.0919677
0.0893857
0.0919337
0.0983323
0.104942
0.10992
0.113748
0.116554
0.118499
0.119545
0.119787
0.118846
0.116718
0.112732
0.106645
0.104064
0.115912
0.175489
0.331562
0.458904
0.518486
0.549976
0.57185
0.584367
0.610089
0.616266
0.603216
0.561401
0.511644
0.473192
0.442773
0.422221
0.407324
0.390611
0.360792
0.306949
0.231436
0.166309
0.168143
0.181479
0.202888
0.224632
0.257345
0.318687
0.369152
0.441079
0.44931
0.42452
0.365191
0.305807
0.256904
0.224215
0.195381
0.154709
0.114948
0.0972608
0.130393
0.160495
0.168422
0.166925
0.165915
0.1653
0.162346
0.157696
0.15078
0.14482
0.141817
0.140094
0.139359
0.139502
0.140878
0.143407
0.146423
0.156555
0.177577
0.197165
0.204416
0.212297
0.224756
0.237165
0.248498
0.252868
0.25159
0.247202
0.240805
0.236368
0.234666
0.235255
0.238341
0.243925
0.25221
0.263183
0.274698
0.285077
0.293811
0.300665
0.305572
0.308655
0.310325
0.311167
0.311663
0.312203
0.312842
0.313617
0.314394
0.315177
0.315843
0.316497
0.317007
0.317565
0.31795
0.318446
0.3189
0.319189
0.0967301
0.114171
0.104812
0.091863
0.0892035
0.0917268
0.0980703
0.104536
0.10944
0.113048
0.115643
0.117403
0.117901
0.117668
0.116123
0.112732
0.10684
0.0979125
0.0911889
0.113328
0.241963
0.393918
0.471964
0.435751
0.381384
0.385415
0.407786
0.414505
0.404584
0.377855
0.357925
0.319628
0.28446
0.260214
0.239594
0.224637
0.195588
0.148911
0.124523
0.107522
0.102835
0.125043
0.170781
0.200931
0.231829
0.263425
0.329383
0.416841
0.421057
0.39485
0.28629
0.150251
0.0962957
0.0862433
0.0888557
0.0984709
0.116777
0.142024
0.23272
0.336176
0.352976
0.335136
0.28455
0.255317
0.228045
0.216865
0.215752
0.215034
0.214579
0.215052
0.216131
0.217684
0.219507
0.22051
0.221466
0.220019
0.211495
0.202983
0.202068
0.198876
0.203497
0.212601
0.221369
0.23392
0.239109
0.240907
0.240524
0.237713
0.233176
0.229121
0.226637
0.226934
0.231462
0.241419
0.255337
0.270151
0.283087
0.293469
0.301127
0.306117
0.308836
0.309983
0.310399
0.310651
0.311104
0.311753
0.312587
0.313424
0.31426
0.314955
0.315633
0.31615
0.316724
0.317111
0.317628
0.31807
0.318388
0.0967336
0.114168
0.104775
0.0917844
0.0890799
0.0915862
0.0978951
0.104252
0.109091
0.112588
0.114967
0.116656
0.116733
0.116225
0.114188
0.109924
0.102769
0.0917029
0.0825535
0.122691
0.27659
0.394109
0.356581
0.307383
0.300214
0.326492
0.361912
0.35531
0.328234
0.297769
0.24783
0.171993
0.128329
0.0958195
0.0793393
0.0752785
0.0768613
0.0673868
0.0577702
0.106776
0.133745
0.119701
0.138821
0.175356
0.224603
0.252956
0.331734
0.352351
0.295937
0.18391
0.103209
0.0833582
0.0800422
0.0865202
0.0950625
0.113481
0.155699
0.256999
0.387318
0.43071
0.406518
0.384517
0.318478
0.278214
0.235361
0.221362
0.224016
0.225249
0.226442
0.228835
0.233341
0.239526
0.244356
0.251789
0.261529
0.27081
0.267561
0.24434
0.213445
0.194413
0.192805
0.19716
0.205595
0.220968
0.23005
0.238353
0.244534
0.244785
0.24043
0.234485
0.230136
0.229653
0.234161
0.245023
0.259827
0.274848
0.287194
0.29672
0.303426
0.307386
0.309123
0.30951
0.309491
0.309544
0.309952
0.310673
0.311585
0.312482
0.313359
0.314078
0.314771
0.315298
0.315885
0.316277
0.316819
0.317247
0.3176
0.0967393
0.114163
0.104742
0.0917135
0.0889875
0.0914775
0.0977575
0.104032
0.108802
0.112236
0.114436
0.116024
0.11587
0.115081
0.112646
0.107717
0.099625
0.0868879
0.0765218
0.12994
0.28509
0.36045
0.312215
0.263456
0.24635
0.305838
0.326857
0.265117
0.19441
0.121541
0.0647322
0.0505178
0.0514358
0.047342
0.0505353
0.0605379
0.0666861
0.0502522
0.0764614
0.120894
0.116876
0.156576
0.23847
0.329286
0.332989
0.31129
0.284786
0.171565
0.105755
0.096154
0.085282
0.0802829
0.0859192
0.0935505
0.104567
0.144527
0.236272
0.386182
0.47841
0.442901
0.410519
0.390505
0.317644
0.265629
0.178321
0.13881
0.131991
0.134815
0.143131
0.153863
0.171275
0.188818
0.205784
0.229351
0.250829
0.281893
0.300281
0.283329
0.231543
0.191223
0.179731
0.182469
0.194978
0.21445
0.228662
0.244204
0.25389
0.255207
0.250936
0.244543
0.240031
0.239782
0.244979
0.255889
0.269915
0.283435
0.293534
0.300841
0.3057
0.308187
0.308855
0.308661
0.308328
0.308308
0.308757
0.309588
0.310593
0.31155
0.312464
0.313202
0.313912
0.314448
0.315054
0.315453
0.316019
0.316439
0.316828
0.0967467
0.11414
0.104701
0.0916557
0.0889163
0.0913904
0.0976463
0.103869
0.108581
0.111972
0.114052
0.115524
0.115262
0.114245
0.111497
0.106102
0.0973592
0.083415
0.0729025
0.135595
0.286034
0.339346
0.256503
0.216704
0.204089
0.285065
0.293191
0.171273
0.0930967
0.0400926
0.024746
0.0282991
0.0250087
0.023177
0.0362688
0.0559495
0.0640764
0.0493799
0.106413
0.136986
0.140641
0.315718
0.320784
0.35928
0.326422
0.143872
0.0789644
0.0861024
0.0754138
0.0704039
0.0651187
0.0626847
0.0680641
0.0744675
0.0741749
0.1483
0.295029
0.452901
0.521444
0.427042
0.388194
0.36467
0.229992
0.20696
0.0939649
0.058943
0.0549889
0.055288
0.0624142
0.0736717
0.0937392
0.111157
0.140002
0.191326
0.230876
0.277208
0.315949
0.304046
0.243481
0.187459
0.168512
0.171917
0.190345
0.21222
0.231104
0.248659
0.25914
0.261295
0.257824
0.252116
0.24846
0.248746
0.254443
0.265003
0.27816
0.290328
0.298582
0.303931
0.306949
0.308039
0.307963
0.307362
0.306965
0.307016
0.307624
0.308583
0.309679
0.31069
0.311636
0.312392
0.313117
0.313667
0.314291
0.314699
0.315292
0.315703
0.316131
0.0967478
0.114136
0.104692
0.0916327
0.0888707
0.0913311
0.0975677
0.103763
0.108436
0.111796
0.113801
0.115189
0.114858
0.113699
0.110738
0.105066
0.0959014
0.081218
0.0709061
0.138358
0.280706
0.323624
0.239111
0.201049
0.187055
0.232287
0.054675
0.0622833
0.0569299
0.125918
0.159495
0.224323
0.349337
0.321742
0.338826
0.0471921
0.128132
0.320011
0.478128
0.531144
0.409969
0.364839
0.327636
0.163729
0.104395
0.136134
0.202966
0.266999
0.326741
0.319294
0.252906
0.183927
0.160621
0.165688
0.188471
0.210728
0.231442
0.249496
0.260279
0.26378
0.261807
0.25707
0.25391
0.254333
0.259902
0.269908
0.282307
0.293975
0.301346
0.305432
0.307271
0.307527
0.307024
0.306222
0.305867
0.30602
0.306781
0.307842
0.309008
0.310057
0.311025
0.311792
0.31253
0.313091
0.31373
0.314146
0.314758
0.31517
0.315616
0.0967461
0.114139
0.104696
0.0916118
0.0888025
0.0912411
0.0974479
0.103608
0.108224
0.111536
0.113435
0.11469
0.114259
0.112897
0.109622
0.103553
0.093783
0.0780727
0.067899
0.140322
0.273125
0.301197
0.201083
0.167589
0.156491
0.183139
0.0492274
0.0602358
0.0677335
0.140714
0.166666
0.310406
0.366434
0.322272
0.32271
0.0427739
0.128414
0.359767
0.507444
0.535691
0.383264
0.329691
0.27223
0.12766
0.0465254
0.0593044
0.102849
0.213361
0.319238
0.334714
0.263467
0.178041
0.146949
0.158796
0.185311
0.20648
0.229137
0.247937
0.26042
0.266384
0.266909
0.264492
0.262042
0.262253
0.266917
0.275788
0.286586
0.297126
0.303656
0.30647
0.306841
0.306187
0.305007
0.304143
0.303942
0.30434
0.305391
0.306624
0.307903
0.309011
0.310016
0.310803
0.311565
0.312144
0.31281
0.313245
0.313881
0.314309
0.31477
0.0967484
0.11412
0.104673
0.0915714
0.0887057
0.0911184
0.0972863
0.103404
0.107946
0.111186
0.112964
0.114039
0.113476
0.111859
0.10818
0.101627
0.0911234
0.0742873
0.0642756
0.140978
0.260831
0.278232
0.177339
0.145246
0.133762
0.134257
0.0531997
0.0665817
0.0617021
0.124673
0.165833
0.33782
0.369119
0.313462
0.313823
0.0687905
0.161977
0.413931
0.535263
0.525568
0.336361
0.275958
0.216259
0.105771
0.0492661
0.052094
0.0611226
0.0954507
0.246458
0.317791
0.258193
0.159201
0.134369
0.154712
0.177266
0.197166
0.220779
0.242067
0.258576
0.268101
0.272589
0.273441
0.272399
0.271852
0.274185
0.280062
0.289143
0.298298
0.303306
0.304448
0.303714
0.302074
0.300823
0.300348
0.300637
0.301696
0.303194
0.304706
0.306146
0.30734
0.308396
0.309222
0.310027
0.310646
0.311357
0.311826
0.312509
0.312957
0.313458
0.0967532
0.114097
0.10464
0.0915181
0.0885928
0.0909772
0.0970935
0.103157
0.107613
0.110754
0.112404
0.113252
0.11253
0.110617
0.106475
0.0994002
0.0881489
0.070326
0.0596441
0.135901
0.244203
0.254589
0.151751
0.11817
0.103174
0.0994917
0.0543975
0.0715719
0.0701421
0.0655603
0.182731
0.315623
0.332412
0.292075
0.312891
0.0923682
0.205004
0.46488
0.561279
0.467449
0.287745
0.23898
0.204759
0.11854
0.0594545
0.066959
0.0661237
0.0725005
0.0920382
0.198744
0.192066
0.118637
0.119642
0.139646
0.157693
0.178928
0.210438
0.239059
0.258323
0.271344
0.279318
0.283289
0.283369
0.281002
0.279892
0.281735
0.287801
0.294115
0.297154
0.297298
0.296047
0.294596
0.294097
0.294505
0.29593
0.297905
0.300002
0.301884
0.303539
0.304849
0.305989
0.306885
0.307768
0.308457
0.309245
0.309769
0.310526
0.311002
0.311573
0.0967601
0.114071
0.104593
0.0914383
0.0884483
0.0907987
0.0968464
0.102828
0.107178
0.110167
0.111673
0.112205
0.111277
0.108989
0.104277
0.0965944
0.0846194
0.0659681
0.0534116
0.123788
0.228333
0.23948
0.138665
0.10583
0.0879222
0.0785311
0.0423345
0.0633621
0.0641389
0.102969
0.254368
0.244186
0.268594
0.241183
0.278249
0.0974585
0.202529
0.458429
0.546951
0.420862
0.271646
0.229558
0.216774
0.151322
0.0587884
0.0635232
0.0537633
0.130057
0.161338
0.160499
0.139421
0.11485
0.0996098
0.100429
0.117932
0.155952
0.203134
0.241889
0.266196
0.28007
0.288479
0.291367
0.290515
0.286504
0.282129
0.280611
0.281469
0.28218
0.281946
0.281465
0.281293
0.281818
0.283441
0.285864
0.288801
0.291758
0.294559
0.296917
0.2989
0.300446
0.301789
0.30286
0.303912
0.304742
0.305673
0.306303
0.307196
0.307718
0.30844
0.0967665
0.114054
0.104557
0.0913471
0.0883187
0.090639
0.0966297
0.10252
0.106782
0.109612
0.110999
0.11123
0.110119
0.107498
0.102304
0.0941531
0.0818587
0.0631836
0.0474511
0.102714
0.215613
0.238577
0.147154
0.110275
0.0930706
0.0849319
0.0304077
0.0429944
0.0842922
0.269423
0.342521
0.191405
0.199762
0.19679
0.229375
0.0889387
0.15968
0.426093
0.525425
0.42744
0.2844
0.250922
0.247709
0.198796
0.0657071
0.0661256
0.0579977
0.127053
0.186109
0.208256
0.161235
0.110901
0.0840196
0.0690206
0.0977529
0.151471
0.212872
0.260301
0.285467
0.294033
0.294736
0.293564
0.288549
0.280765
0.274555
0.271185
0.267863
0.264561
0.263018
0.263519
0.266049
0.269644
0.273573
0.277418
0.281196
0.284725
0.287979
0.290725
0.293074
0.294949
0.296593
0.297919
0.299197
0.300215
0.301325
0.302088
0.303163
0.303729
0.304664
0.0967724
0.114044
0.104533
0.091275
0.0882377
0.0905373
0.0964918
0.102311
0.106513
0.109243
0.110546
0.110582
0.10935
0.106503
0.101017
0.0926122
0.0802426
0.062094
0.0443902
0.0821069
0.203507
0.241397
0.165149
0.123652
0.108628
0.105309
0.0303815
0.07214
0.200935
0.350618
0.362152
0.177842
0.134484
0.162015
0.188452
0.101256
0.156372
0.402996
0.509678
0.435768
0.309514
0.291406
0.292067
0.248721
0.0768614
0.0762108
0.0516446
0.0952305
0.142937
0.169447
0.168084
0.105169
0.0744477
0.0640894
0.0987335
0.157124
0.224643
0.276918
0.300237
0.301034
0.292593
0.279223
0.267566
0.258829
0.254263
0.252827
0.251046
0.249626
0.250079
0.252948
0.257395
0.262298
0.267008
0.271306
0.275365
0.279124
0.282633
0.285662
0.288309
0.290462
0.292354
0.293884
0.295345
0.296513
0.297767
0.29864
0.299868
0.300463
0.301595
0.0967783
0.114038
0.104508
0.0912163
0.0881754
0.0904647
0.096386
0.102159
0.106301
0.10897
0.110183
0.110114
0.108758
0.10575
0.100026
0.0915304
0.0790392
0.0616271
0.0432963
0.0630928
0.185718
0.245368
0.194298
0.148776
0.137298
0.137046
0.0881259
0.177348
0.26766
0.369078
0.337162
0.177265
0.0919128
0.145147
0.168943
0.118656
0.157197
0.382471
0.494831
0.449591
0.334733
0.31839
0.332559
0.294263
0.0855831
0.0882379
0.0523883
0.111048
0.138335
0.157283
0.161424
0.107037
0.0759552
0.0675014
0.101666
0.160477
0.229236
0.282962
0.305021
0.301677
0.280831
0.258329
0.242552
0.234524
0.232851
0.234262
0.23638
0.238636
0.242051
0.246648
0.251825
0.256955
0.26176
0.266173
0.270354
0.274271
0.277992
0.281265
0.284169
0.28655
0.288653
0.290354
0.291974
0.293271
0.294654
0.295627
0.296989
0.297615
0.298922
0.0967848
0.114018
0.104469
0.0911713
0.0881234
0.0904081
0.0963008
0.102052
0.106141
0.108777
0.10991
0.109789
0.108333
0.105204
0.0993136
0.0907748
0.0782041
0.0614173
0.0431331
0.0513421
0.165758
0.245713
0.226932
0.173666
0.161184
0.197227
0.232076
0.252217
0.285541
0.357884
0.300089
0.16784
0.0683141
0.141818
0.176992
0.139763
0.15943
0.366386
0.480808
0.464829
0.35441
0.339799
0.363596
0.321671
0.0939688
0.0921247
0.064839
0.120772
0.142536
0.155983
0.157409
0.111305
0.0812947
0.0720526
0.103938
0.161138
0.229484
0.282966
0.301223
0.293185
0.266479
0.241114
0.224636
0.217976
0.2181
0.222127
0.227557
0.232645
0.237769
0.243016
0.248182
0.253072
0.257704
0.26209
0.266361
0.27041
0.274306
0.277764
0.280855
0.283405
0.285662
0.287495
0.289236
0.290634
0.292122
0.293175
0.29465
0.295308
0.296757
0.0967856
0.114014
0.104461
0.0911576
0.0880899
0.0903689
0.0962412
0.101982
0.10604
0.108653
0.109731
0.109577
0.108059
0.104848
0.0988682
0.090281
0.077705
0.0612668
0.0435254
0.043776
0.150835
0.244124
0.244757
0.199883
0.183933
0.220412
0.269827
0.148113
0.118284
0.114712
0.111847
0.115994
0.134006
0.17993
0.216765
0.269895
0.260998
0.285776
0.335106
0.280646
0.166324
0.0611542
0.121493
0.162952
0.143769
0.12679
0.12535
0.103057
0.0375107
0.00985208
0.0083873
0.0105502
0.017095
0.0621974
0.139729
0.159196
0.356245
0.472034
0.47527
0.366106
0.351504
0.390038
0.360888
0.211027
0.0596412
0.0614119
0.0872005
0.095891
0.0610927
0.0480598
0.043198
0.0568834
0.0992912
0.0905571
0.0778872
0.123467
0.145034
0.159502
0.156772
0.114643
0.0859936
0.0751313
0.104407
0.159217
0.225107
0.274969
0.290273
0.280848
0.253855
0.229571
0.214644
0.209525
0.210597
0.216149
0.223156
0.229582
0.235444
0.240853