/*--------------------------------*- C++ -*----------------------------------*\
| =========                 |                                                 |
| \\      /  F ield         | OpenFOAM: The Open Source CFD Toolbox           |
|  \\    /   O peration     | Version:  v2006                                 |
|   \\  /    A nd           | Website:  www.openfoam.com                      |
|    \\/     M anipulation  |                                                 |
\*---------------------------------------------------------------------------*/
FoamFile
{
    version     2.0;
    format      ascii;
    class       volScalarField;
    location    "13536";
    object      p;
}
// * * * * * * * * * * * * * * * * * * * * * * * * * * * * * * * * * * * * * //

dimensions      [0 2 -2 0 0 0 0];


internalField   nonuniform List<scalar> 
374400
(
0.0294941
0.0290973
0.0293142
0.0294787
0.0295387
0.0294456
0.0292243
0.0288843
0.0284393
0.0278967
0.0272599
0.0265334
0.025715
0.0248149
0.0238217
0.0227636
0.0216035
0.0204201
0.0191744
0.0180322
0.0170466
0.0162567
0.0156954
0.0152487
0.0149264
0.0146813
0.0145132
0.0142952
0.0140084
0.0136356
0.0131761
0.0126716
0.012254
0.0119552
0.0117274
0.0115718
0.0113677
0.0111008
0.0107561
0.0103309
0.00987293
0.00950295
0.00923609
0.00903565
0.00889922
0.00871843
0.00847901
0.00818591
0.00790297
0.00765606
0.00739528
0.00711815
0.00689871
0.00674005
0.00663403
0.00648509
0.00629673
0.00605961
0.00576626
0.00547429
0.0052584
0.00509597
0.00498047
0.00490422
0.00478954
0.00465039
0.00448093
0.00427268
0.0040785
0.00394606
0.00384295
0.00377337
0.00373015
0.00365726
0.00357325
0.00347484
0.00335459
0.00320638
0.00306066
0.0029406
0.00291843
0.00299465
0.00319448
0.0035011
0.00391057
0.0043741
0.00485415
0.0053335
0.00579238
0.00621851
0.00660163
0.00693542
0.00721564
0.00744018
0.0076084
0.00772073
0.00777854
0.0077834
0.00773783
0.00764346
0.00750374
0.00731927
0.00709529
0.00682905
0.00653079
0.00618847
0.00582637
0.00540887
0.00499934
0.00449673
0.00407224
0.00344556
0.00308402
0.00221825
0.00211766
0.000702507
0.00127161
0.0296932
0.0292977
0.0295143
0.0296806
0.0297424
0.0296518
0.0294328
0.0290948
0.0286512
0.0281084
0.0274689
0.0267371
0.0259098
0.0249964
0.0239846
0.0229024
0.0217109
0.0204911
0.0192022
0.0180181
0.016994
0.0161741
0.0155908
0.0151271
0.0147927
0.0145381
0.0143638
0.0141377
0.0138395
0.0134524
0.0129745
0.0124493
0.0120157
0.0117059
0.0114695
0.0113085
0.0110971
0.01082
0.010463
0.0100219
0.009547
0.00916503
0.00888981
0.00868314
0.00854307
0.00835686
0.00810998
0.00780883
0.00751741
0.00726496
0.00699753
0.0067138
0.00649044
0.00632905
0.00622198
0.00607057
0.00587906
0.00563959
0.00534175
0.00504609
0.00483039
0.00466822
0.00455328
0.00447822
0.0043642
0.004226
0.00405908
0.0038532
0.00366299
0.00353664
0.0034379
0.00337192
0.00333191
0.00326235
0.00318273
0.00309103
0.00297856
0.00284342
0.00271577
0.00262311
0.0026358
0.00275422
0.00299757
0.00335092
0.00380343
0.00430607
0.00481859
0.00532484
0.00580496
0.00624751
0.00664284
0.00698537
0.00727157
0.00749989
0.00766995
0.0077828
0.00784021
0.00784405
0.0077969
0.00770074
0.007559
0.00737236
0.00714617
0.00687759
0.00657703
0.00623242
0.00586822
0.00544816
0.00503653
0.00453078
0.00410426
0.00347327
0.00310988
0.00223751
0.00213597
0.000710294
0.0012816
0.0300995
0.0297108
0.0299304
0.0301045
0.030175
0.0300952
0.029888
0.0295625
0.0291313
0.0285995
0.0279683
0.0272412
0.0264133
0.0254928
0.024465
0.0233579
0.0221295
0.0208637
0.0195176
0.018275
0.0171966
0.0163295
0.0157114
0.0152185
0.0148621
0.0145908
0.0144042
0.0141628
0.0138451
0.0134311
0.012921
0.0123617
0.0118989
0.0115672
0.0113146
0.0111418
0.0109151
0.0106193
0.0102372
0.00976632
0.00926209
0.00885629
0.00856264
0.00834306
0.00819369
0.00799462
0.0077332
0.00741246
0.00710568
0.00683927
0.0065553
0.00625867
0.00602332
0.00585448
0.00574206
0.00558209
0.00538195
0.00513134
0.00482122
0.00451778
0.00429809
0.00413124
0.00401423
0.00393767
0.00382008
0.00367967
0.0035102
0.00330141
0.00311342
0.0029916
0.00289437
0.00283083
0.00279263
0.00272378
0.00264719
0.00255924
0.00245294
0.00232931
0.00222296
0.00216683
0.00223166
0.00241432
0.00272746
0.00315282
0.00367485
0.00423984
0.00480395
0.00535267
0.00586598
0.00633381
0.0067475
0.00710268
0.00739679
0.00762933
0.00780099
0.00791332
0.00796869
0.00796922
0.0079182
0.0078176
0.00767127
0.00747978
0.00724884
0.00697538
0.00667028
0.00632081
0.00595242
0.00552707
0.00511153
0.00459909
0.00416908
0.00352827
0.00316281
0.00227442
0.00217497
0.000721536
0.00130594
0.0306913
0.0303091
0.0305316
0.0307145
0.030795
0.0307277
0.0305339
0.0302217
0.0298016
0.0292773
0.0286474
0.0279141
0.0270683
0.0261163
0.0250385
0.0238633
0.0225409
0.0211629
0.0196783
0.0182996
0.017094
0.0161259
0.0154341
0.0148826
0.0144852
0.0141814
0.0139732
0.0137044
0.013348
0.0128852
0.0123124
0.0116826
0.0111642
0.0107942
0.0105119
0.0103199
0.010068
0.00973746
0.00931282
0.00878791
0.00822572
0.00777798
0.00745561
0.00721463
0.00705235
0.00683487
0.00654814
0.00619977
0.00586467
0.00557875
0.00527268
0.00495395
0.00470501
0.00452664
0.00440997
0.00424135
0.00403038
0.00376996
0.00344683
0.00313512
0.00291739
0.00275231
0.00263787
0.00256543
0.00245016
0.00231312
0.00215252
0.00195235
0.00177903
0.00167813
0.00159597
0.00154494
0.00151761
0.00146013
0.00139885
0.00133379
0.00125457
0.0011755
0.00113055
0.00116666
0.00134841
0.00166962
0.00212846
0.00270225
0.00336137
0.00404852
0.00471224
0.00534201
0.0059185
0.00643471
0.00688384
0.0072636
0.00757352
0.0078152
0.00799116
0.00810417
0.00815743
0.00815399
0.00809769
0.00799097
0.00783815
0.00763991
0.00740228
0.00712194
0.00681042
0.00645377
0.00607926
0.005646
0.00522484
0.00470225
0.00426747
0.00361153
0.00324387
0.0023303
0.00223594
0.000737627
0.00134686
0.0314961
0.0311303
0.0313614
0.0315643
0.0316677
0.0316297
0.0314688
0.0311928
0.0308097
0.0303214
0.0297247
0.0290181
0.0281881
0.027238
0.0261423
0.0249279
0.0235361
0.0220643
0.0204534
0.0189406
0.0176061
0.0165251
0.0157489
0.0151265
0.014676
0.0143314
0.014093
0.0137873
0.0133831
0.0128547
0.0122029
0.0114888
0.0108979
0.0104742
0.010152
0.00993118
0.00964201
0.00926573
0.00877967
0.00818216
0.00754835
0.00704282
0.00667629
0.00640452
0.00622031
0.00597226
0.00565079
0.00525608
0.00488467
0.00456622
0.00422167
0.00387359
0.00359811
0.00340307
0.00327464
0.00308684
0.00285699
0.00257271
0.00222358
0.00189779
0.00167477
0.00150177
0.0013848
0.00131066
0.00118934
0.00104975
0.000886962
0.000685356
0.000522105
0.000435989
0.000360636
0.000317607
0.000296196
0.000242799
0.000191396
0.000138757
7.83191e-05
3.20784e-05
4.38734e-05
0.000172858
0.000482353
0.00095659
0.00157659
0.00231378
0.00312454
0.003945
0.00471549
0.00543062
0.00607166
0.00663512
0.00711708
0.00751844
0.00784111
0.00808863
0.00826487
0.0083742
0.00842116
0.00840962
0.00834419
0.00822773
0.00806501
0.00785677
0.00760964
0.00731967
0.00699939
0.00663316
0.0062507
0.00580679
0.00537867
0.00484227
0.0044024
0.00372527
0.00335716
0.00240679
0.00232439
0.00075794
0.00141086
0.0324676
0.0321173
0.0323575
0.032583
0.0327126
0.0327079
0.0325843
0.0323489
0.0320062
0.031556
0.0309901
0.0303019
0.0294711
0.0284959
0.0273395
0.0260269
0.0244807
0.02281
0.0209344
0.0191507
0.0175539
0.0162608
0.0153281
0.0145797
0.0140408
0.0136258
0.0133401
0.0129752
0.0124871
0.0118519
0.0110641
0.0101965
0.00948413
0.00897668
0.00858975
0.00832688
0.0079825
0.00753084
0.0069523
0.00623817
0.00548088
0.0048867
0.0044591
0.00414237
0.00393099
0.0036436
0.0032696
0.00281706
0.00238841
0.00203153
0.00164221
0.00125231
0.000950868
0.000738815
0.000603665
0.000399576
0.000150467
-0.000149455
-0.000518701
-0.000852436
-0.00106304
-0.0012268
-0.00133373
-0.00139603
-0.00150862
-0.00163506
-0.00177177
-0.00194554
-0.00206778
-0.0021022
-0.00214054
-0.00215327
-0.0021493
-0.00217526
-0.00218977
-0.00218889
-0.0021854
-0.0021286
-0.00197702
-0.00164362
-0.00108456
-0.000323785
0.000585895
0.00160816
0.00267083
0.00370614
0.00464523
0.00549321
0.00623368
0.00686867
0.00739997
0.00783347
0.00817496
0.00843114
0.00860884
0.00871422
0.00875358
0.00873186
0.00865492
0.00852612
0.00835097
0.00813008
0.00787105
0.007569
0.00723789
0.00685959
0.00646768
0.00601047
0.00557457
0.00502056
0.00457605
0.00387085
0.00350592
0.00250486
0.00244575
0.000781336
0.00150793
0.033643
0.0333233
0.033581
0.033847
0.0340244
0.034081
0.0340294
0.0338763
0.0336239
0.0332697
0.0327995
0.0322028
0.0314509
0.0305357
0.0294063
0.028082
0.0264619
0.0246605
0.0225703
0.0205386
0.0186833
0.0171597
0.0160517
0.0151535
0.0145033
0.0140014
0.0136515
0.0132094
0.0126191
0.011844
0.0108866
0.00983653
0.00896824
0.0083468
0.00787513
0.00755101
0.00712918
0.00658141
0.00587448
0.00500871
0.00410244
0.00339103
0.00287405
0.0024952
0.00224037
0.00189087
0.00144767
0.000903638
0.00040416
-1.30678e-05
-0.000476438
-0.000919235
-0.0012692
-0.00151014
-0.00166404
-0.00190277
-0.0021834
-0.0025208
-0.00293001
-0.00327659
-0.00348292
-0.00365115
-0.0037549
-0.00381426
-0.00393062
-0.00405226
-0.00417969
-0.00434098
-0.00442662
-0.00441788
-0.00443224
-0.00442176
-0.00440063
-0.00441088
-0.00439711
-0.00436015
-0.00430644
-0.00416616
-0.00388257
-0.00334522
-0.00252085
-0.00145673
-0.000242464
0.0010765
0.0023992
0.00365073
0.00475482
0.00572673
0.00655578
0.00725227
0.00782328
0.00827849
0.00862826
0.00888327
0.0090533
0.00914657
0.00917076
0.00913259
0.00903845
0.00889233
0.00870036
0.00846316
0.00818904
0.00787189
0.0075278
0.00713498
0.00673228
0.00625917
0.00581545
0.00523994
0.00479296
0.00405189
0.00369685
0.00262736
0.00260943
0.000806404
0.00165082
0.0349527
0.0346639
0.0349411
0.0352531
0.035486
0.0356152
0.0356487
0.0355939
0.0354494
0.035208
0.0348497
0.0343569
0.0336887
0.0328264
0.0316956
0.0303048
0.0285091
0.0264306
0.0239023
0.021382
0.0190147
0.017064
0.0156335
0.0144712
0.0136342
0.0129825
0.0125297
0.0119622
0.0111949
0.010193
0.00894959
0.0075779
0.00645385
0.0056558
0.00504912
0.00463678
0.00409914
0.00339554
0.00249689
0.0013914
0.000237484
-0.000648775
-0.00128796
-0.00175401
-0.00206054
-0.00248789
-0.00303141
-0.0036863
-0.0042903
-0.00477287
-0.00531889
-0.00583038
-0.00621894
-0.00648235
-0.00664158
-0.00690684
-0.00721333
-0.00756418
-0.00799662
-0.00833449
-0.0084901
-0.00862099
-0.00869021
-0.0087159
-0.00880057
-0.00887703
-0.00892914
-0.0090059
-0.00898028
-0.00884862
-0.00877502
-0.00869423
-0.00861688
-0.0085626
-0.00846325
-0.00830696
-0.0081091
-0.00774389
-0.00715897
-0.00619636
-0.00487655
-0.00327446
-0.0015448
0.000249764
0.00196665
0.00353071
0.00486784
0.00600793
0.00695332
0.00772696
0.00834414
0.00882341
0.00918131
0.00943306
0.00959148
0.00966791
0.00967206
0.00961238
0.00949631
0.0093284
0.00911558
0.00885824
0.00856582
0.00823048
0.00787112
0.00746125
0.00704675
0.00655485
0.00610396
0.00550219
0.00505653
0.00426966
0.00393551
0.00277484
0.00282597
0.000829687
0.00186125
0.0364281
0.0361891
0.0364975
0.0368799
0.0371986
0.0374407
0.0376115
0.0377209
0.0377646
0.0377342
0.0376057
0.0373569
0.0369361
0.0363137
0.0353892
0.034153
0.0324046
0.0302518
0.0274372
0.0245023
0.021618
0.0191801
0.0173632
0.015863
0.0147771
0.0139266
0.0133266
0.0125872
0.0115869
0.0102662
0.00863595
0.00684934
0.00538076
0.00433238
0.00354214
0.00300025
0.00229381
0.00138189
0.000211232
-0.00121758
-0.00268068
-0.00379818
-0.00461435
-0.00520037
-0.00558775
-0.006138
-0.00681709
-0.00764822
-0.00838307
-0.00896693
-0.00964632
-0.0102402
-0.0107002
-0.0110007
-0.0111806
-0.0114991
-0.011846
-0.0122372
-0.0127114
-0.0130281
-0.0131299
-0.0132422
-0.0132842
-0.0132873
-0.0133608
-0.0134016
-0.0133961
-0.0134033
-0.013264
-0.0130163
-0.0128707
-0.0127282
-0.0126058
-0.0125019
-0.0123271
-0.0120747
-0.0117488
-0.0111823
-0.0102971
-0.00889196
-0.00703022
-0.00484987
-0.00257015
-0.000278484
0.00183957
0.003707
0.00525797
0.00654685
0.00758722
0.00841429
0.00905482
0.00953716
0.00988471
0.0101163
0.0102487
0.0102957
0.0102693
0.010179
0.0100333
0.00983703
0.00959824
0.00931628
0.00900208
0.00864532
0.00826883
0.00783923
0.00741273
0.00689939
0.00644347
0.00581081
0.00537276
0.00452924
0.00423199
0.00295236
0.00311104
0.000850854
0.00216407
0.0379241
0.0377356
0.0380772
0.0385361
0.0389501
0.0393193
0.039647
0.0399453
0.0402076
0.0404263
0.0405734
0.0406224
0.040508
0.0401863
0.0395194
0.0384667
0.0367359
0.0343961
0.0310156
0.0272872
0.0233967
0.0200571
0.0175222
0.0154189
0.013905
0.0127079
0.0118674
0.0108391
0.00942833
0.00758056
0.00528916
0.00279771
0.00079839
-0.000620247
-0.00168298
-0.00239904
-0.00334717
-0.00457324
-0.00612275
-0.00803057
-0.00996752
-0.0114047
-0.012452
-0.0132012
-0.0136821
-0.014388
-0.0152563
-0.0162924
-0.0172116
-0.0178935
-0.0187237
-0.0194084
-0.0199113
-0.0202263
-0.0203927
-0.02074
-0.0210987
-0.0214605
-0.0218999
-0.0220933
-0.022009
-0.0219933
-0.0219254
-0.0218335
-0.021818
-0.0217324
-0.0215249
-0.0213015
-0.0208839
-0.0203593
-0.0200143
-0.0197177
-0.0194768
-0.0192279
-0.0188647
-0.0183576
-0.017719
-0.0166757
-0.0151529
-0.0128891
-0.0100813
-0.00695957
-0.00384727
-0.000852281
0.00179116
0.00402724
0.0058243
0.00726658
0.00839825
0.00926882
0.00992207
0.0103945
0.0107175
0.0109151
0.0110092
0.0110156
0.0109491
0.0108198
0.0106375
0.0104068
0.0101368
0.00982571
0.00948633
0.00910494
0.00870933
0.00825764
0.00781911
0.00728151
0.00682381
0.00615505
0.00573441
0.0048216
0.00458435
0.00315341
0.0034726
0.000864096
0.0025821
0.0393777
0.0392527
0.039635
0.0401868
0.0407166
0.0412435
0.0417689
0.0423107
0.0428657
0.0434325
0.0439875
0.0445088
0.0449305
0.0452051
0.0451738
0.0447648
0.0436036
0.0416644
0.0382815
0.0341457
0.0293467
0.0249962
0.0215636
0.0186317
0.0165039
0.0148038
0.0135929
0.0121354
0.0101294
0.00748397
0.00423932
0.0008345
-0.00182745
-0.00373752
-0.00513006
-0.0060656
-0.00734304
-0.00894891
-0.0109698
-0.013465
-0.0159237
-0.0177281
-0.0190809
-0.0200404
-0.0206584
-0.0215932
-0.022708
-0.0240689
-0.0252152
-0.02604
-0.0270989
-0.0278588
-0.0284281
-0.0287521
-0.0289089
-0.0293121
-0.0296755
-0.0300033
-0.0303752
-0.0303505
-0.0300235
-0.0298666
-0.0296775
-0.0294976
-0.0293892
-0.0291598
-0.0287647
-0.0283204
-0.0276394
-0.0268945
-0.0264036
-0.0259911
-0.0256708
-0.0253192
-0.0248084
-0.024119
-0.0232224
-0.0217805
-0.0196394
-0.0164985
-0.0126874
-0.00860003
-0.00464379
-0.000964128
0.00216577
0.00470996
0.00670691
0.0082526
0.00942961
0.0103029
0.0109352
0.0113702
0.0116461
0.0117924
0.0118339
0.0117886
0.0116726
0.0114969
0.0112722
0.0110028
0.0106983
0.0103557
0.00998946
0.00958211
0.00916686
0.00869175
0.00824278
0.00767968
0.00722459
0.00651653
0.00612554
0.00513264
0.00498185
0.00336844
0.00390333
0.000865714
0.00310856
0.0407037
0.0406381
0.0410588
0.0417012
0.0423447
0.043029
0.0437528
0.0445421
0.045399
0.0463316
0.0473242
0.048365
0.0493946
0.0503679
0.0511127
0.0515213
0.0511218
0.0497207
0.0462753
0.0413768
0.0348715
0.0286492
0.0235073
0.0190435
0.0158215
0.0132184
0.011385
0.00919353
0.0061425
0.00221144
-0.00258434
-0.00729756
-0.0107055
-0.0131583
-0.0148735
-0.015976
-0.0176074
-0.0196152
-0.0220561
-0.0251936
-0.0282603
-0.0304885
-0.0321996
-0.0334582
-0.034253
-0.0354766
-0.036974
-0.0387643
-0.0402464
-0.0412219
-0.0425439
-0.0433786
-0.0439387
-0.0442078
-0.0442743
-0.0446608
-0.0449331
-0.0450307
-0.0450925
-0.0445606
-0.0437131
-0.043172
-0.0426911
-0.0422797
-0.0418781
-0.0412945
-0.0404274
-0.0394367
-0.0382286
-0.0370742
-0.0362579
-0.035612
-0.0351254
-0.0345272
-0.0337066
-0.032612
-0.0311648
-0.0289051
-0.0255858
-0.0209508
-0.0156054
-0.0102081
-0.00519173
-0.00073192
0.00290237
0.00571444
0.00786707
0.0094723
0.0106576
0.0115037
0.0120876
0.0124591
0.0126664
0.0127429
0.0127169
0.0126088
0.0124346
0.012205
0.0119318
0.0116188
0.0112761
0.0108986
0.0105033
0.0100675
0.00963206
0.00913143
0.00867159
0.00808007
0.00763069
0.00687778
0.00652485
0.00544002
0.00540219
0.00357537
0.00439098
0.0008427
0.00373992
0.0418985
0.0418972
0.0423574
0.0430942
0.043856
0.0447059
0.0456398
0.0466964
0.0478867
0.0492346
0.0507427
0.0524225
0.0542453
0.0561969
0.0581504
0.0600058
0.0613148
0.0616963
0.0598085
0.0556055
0.0482076
0.0400073
0.0325242
0.0255198
0.0204357
0.0161369
0.0130522
0.00948006
0.00459325
-0.00161435
-0.00893776
-0.0151635
-0.0190421
-0.021923
-0.0236936
-0.0247516
-0.0266623
-0.0288039
-0.0312673
-0.0347889
-0.038141
-0.0407474
-0.0429576
-0.0447769
-0.0459678
-0.047739
-0.0499213
-0.0526202
-0.0546293
-0.0558723
-0.0576431
-0.0584001
-0.0588759
-0.0589956
-0.0589193
-0.0592708
-0.0593314
-0.0590327
-0.0584968
-0.0570335
-0.0554189
-0.0543341
-0.053481
-0.052838
-0.0520828
-0.0510785
-0.0497599
-0.0481853
-0.046603
-0.0454096
-0.0445128
-0.0438235
-0.0433501
-0.0426658
-0.0417072
-0.0404755
-0.0386485
-0.0357964
-0.0312712
-0.0250356
-0.0180003
-0.0112704
-0.00520504
-1.66724e-05
0.00406279
0.00706736
0.00931261
0.0109157
0.0120583
0.0128301
0.0133318
0.013617
0.0137389
0.0137332
0.0136297
0.0134486
0.0132082
0.0129189
0.0125922
0.0122312
0.0118468
0.0114316
0.0110051
0.0105391
0.0100824
0.00955556
0.00908648
0.00846501
0.00802536
0.00722497
0.00692099
0.00573512
0.00583354
0.00376613
0.00492009
0.000788425
0.0044672
0.0428689
0.0429235
0.0434149
0.0442332
0.0450953
0.0460886
0.0472045
0.0484954
0.0499808
0.0517015
0.0536798
0.0559548
0.0585368
0.0614573
0.0646606
0.0680913
0.071406
0.0740611
0.0743767
0.0712217
0.0621853
0.0502144
0.0380159
0.0259572
0.0174758
0.00987665
0.00453635
-0.00116015
-0.00861527
-0.0175341
-0.0276841
-0.0342295
-0.0372287
-0.0397517
-0.0407653
-0.0410756
-0.0427184
-0.0440991
-0.0451229
-0.0478127
-0.0505421
-0.0536806
-0.0567972
-0.0600281
-0.0621721
-0.0650647
-0.0688008
-0.0733495
-0.0762989
-0.0779521
-0.0802849
-0.0809585
-0.0811979
-0.0810702
-0.080699
-0.0808899
-0.0805466
-0.0794552
-0.0777508
-0.0747683
-0.0719454
-0.0700035
-0.0685983
-0.0675671
-0.0662434
-0.0645748
-0.0624104
-0.0597839
-0.0576545
-0.0565407
-0.0554857
-0.0547774
-0.0543607
-0.0534716
-0.0522868
-0.0508007
-0.0482634
-0.0443571
-0.0377998
-0.0292532
-0.0200921
-0.0119312
-0.00483003
0.00102356
0.00547143
0.00856765
0.0108512
0.0124061
0.0134769
0.0141555
0.0145539
0.014733
0.0147558
0.0146576
0.0144709
0.0142152
0.0139079
0.013559
0.0131794
0.0127713
0.0123459
0.0118934
0.0114363
0.0109403
0.0104631
0.00990985
0.00943296
0.0087815
0.00835409
0.00750356
0.007254
0.00596123
0.0062139
0.00389261
0.00543269
0.0006763
0.00523933
0.0435838
0.0436862
0.0442008
0.0450851
0.046026
0.0471343
0.0483952
0.0498751
0.0516003
0.0536276
0.0559984
0.0587795
0.0620259
0.0658217
0.0702176
0.0752653
0.0809017
0.0866838
0.0911921
0.0922947
0.0853887
0.0717099
0.0549891
0.0356417
0.0219903
0.00815877
-0.00170453
-0.0111403
-0.0232199
-0.0359026
-0.0501105
-0.0551201
-0.0545165
-0.0542617
-0.0525751
-0.050919
-0.0511862
-0.0504422
-0.0486826
-0.049282
-0.0495748
-0.052423
-0.0567757
-0.0638919
-0.0686612
-0.0740321
-0.0808696
-0.088862
-0.0927258
-0.0944703
-0.0965358
-0.0958332
-0.0948739
-0.0943459
-0.093769
-0.093934
-0.0934613
-0.0920206
-0.0887538
-0.0836323
-0.0794002
-0.0764083
-0.0743977
-0.0730738
-0.0712525
-0.0691417
-0.0667904
-0.0637476
-0.0618573
-0.0618759
-0.0614629
-0.0613071
-0.0613901
-0.0608239
-0.059972
-0.0589391
-0.056289
-0.0519897
-0.0437423
-0.0331075
-0.0219595
-0.0125137
-0.00447615
0.00195073
0.0067113
0.00987138
0.0121807
0.0136904
0.0146916
0.0152742
0.0155746
0.0156566
0.0155879
0.0154066
0.0151458
0.0148231
0.0144561
0.0140544
0.0136291
0.0131807
0.0127209
0.0122376
0.0117555
0.0112351
0.0107419
0.0101668
0.00968419
0.0090071
0.00859221
0.00769843
0.00750023
0.00611219
0.0065075
0.00395535
0.00585689
0.000533175
0.00594445
0.0440642
0.0442018
0.0447301
0.0456608
0.0466549
0.0478431
0.0492041
0.0508154
0.0527074
0.0549489
0.0575948
0.0607322
0.0644483
0.0688656
0.074123
0.0803659
0.0877945
0.0961591
0.104442
0.11012
0.105456
0.0896755
0.066031
0.0358282
0.0149928
-0.00691508
-0.0219624
-0.0320998
-0.0480402
-0.0600185
-0.0786961
-0.0765782
-0.0737473
-0.0730908
-0.0705031
-0.0671291
-0.0653271
-0.0603028
-0.0522674
-0.0457381
-0.0394801
-0.0441113
-0.052409
-0.0647146
-0.0741883
-0.0828497
-0.0930665
-0.102935
-0.106288
-0.106797
-0.10804
-0.106877
-0.105269
-0.104805
-0.104027
-0.104123
-0.104063
-0.102303
-0.0971751
-0.0904647
-0.0850452
-0.0810778
-0.0784236
-0.0766936
-0.0742185
-0.0713541
-0.0684994
-0.0654185
-0.0641862
-0.0653153
-0.0654985
-0.0659892
-0.0665389
-0.0662245
-0.0657909
-0.065365
-0.0628709
-0.0583464
-0.0485103
-0.0360904
-0.0233918
-0.0130334
-0.00434152
0.00250998
0.00751582
0.0107395
0.0130779
0.0145553
0.0155138
0.016034
0.0162705
0.0162862
0.0161536
0.015911
0.0155944
0.0152226
0.0148128
0.0143738
0.0139163
0.0134397
0.0129559
0.012451
0.0119517
0.0114141
0.01091
0.0103192
0.00983397
0.00913764
0.00873454
0.00780594
0.00765114
0.00618638
0.00670147
0.00396136
0.00616502
0.00037531
0.00649987
0.0443867
0.0445495
0.0450866
0.0460495
0.0470802
0.0483236
0.0497537
0.051456
0.0534637
0.0558539
0.0586914
0.0620772
0.0661207
0.0709739
0.076836
0.0839247
0.0926438
0.102949
0.114336
0.124801
0.124363
0.112622
0.0898348
0.0558194
0.030875
-0.00243025
-0.0299849
-0.0521181
-0.0804399
-0.0808598
-0.103848
-0.0977537
-0.0914734
-0.0801533
-0.0731762
-0.0686334
-0.0640536
-0.0588443
-0.0532512
-0.0458325
-0.0408732
-0.0439197
-0.0524973
-0.0685593
-0.0829779
-0.0954174
-0.107733
-0.114628
-0.118327
-0.11667
-0.113752
-0.108178
-0.103138
-0.100259
-0.100517
-0.104288
-0.107011
-0.106034
-0.0995339
-0.0910648
-0.0841893
-0.0793808
-0.0760244
-0.0740462
-0.0713604
-0.0686101
-0.0664758
-0.0637458
-0.0626373
-0.0644205
-0.0653914
-0.0665249
-0.0676903
-0.0678789
-0.0678671
-0.0679173
-0.0658386
-0.061676
-0.0515263
-0.0382921
-0.0246685
-0.0136485
-0.00445901
0.0027617
0.00798172
0.0112797
0.0136594
0.0151253
0.0160615
0.0165457
0.0167393
0.0167089
0.0165328
0.0162489
0.0158949
0.0154896
0.0150504
0.0145857
0.0141059
0.0136096
0.0131091
0.0125891
0.0120778
0.0115281
0.0110164
0.0104145
0.0099274
0.00921734
0.00882249
0.00787021
0.00774668
0.00622653
0.00682724
0.00395133
0.00637594
0.000250198
0.00690299
0.0446097
0.0447895
0.045332
0.0463176
0.0473733
0.0486553
0.0501335
0.0518993
0.0539878
0.0564822
0.0594538
0.0630137
0.0672865
0.072445
0.078731
0.0864149
0.0960489
0.107772
0.121468
0.13597
0.138673
0.130969
0.107055
0.0674308
0.0254541
-0.0295572
-0.087364
-0.0771636
-0.125938
-0.100291
-0.118633
-0.0950856
-0.0933885
-0.0888149
-0.0855769
-0.0808995
-0.0743303
-0.0663359
-0.0582458
-0.0493572
-0.0468005
-0.0512633
-0.0630725
-0.0839064
-0.104027
-0.109382
-0.126397
-0.12317
-0.123546
-0.118129
-0.115201
-0.110649
-0.105105
-0.104572
-0.105084
-0.108484
-0.110563
-0.109137
-0.100804
-0.0920756
-0.0849917
-0.0802215
-0.077011
-0.0749496
-0.0721684
-0.0687926
-0.0657682
-0.0628395
-0.0620464
-0.0644193
-0.0657185
-0.0673073
-0.0687862
-0.0695533
-0.069956
-0.0707685
-0.0691841
-0.0651385
-0.0545047
-0.0404453
-0.0260323
-0.0144685
-0.00485335
0.00270514
0.00813202
0.011519
0.0139571
0.0154384
0.0163715
0.0168441
0.0170173
0.0169622
0.0167611
0.0164532
0.0160769
0.0156513
0.0151941
0.0147134
0.0142195
0.0137108
0.0131996
0.0126699
0.0121509
0.0115931
0.0110766
0.010467
0.00997898
0.009259
0.00887058
0.00790047
0.0078002
0.00623988
0.00690547
0.00392973
0.00651958
0.000139893
0.00719806
0.0447837
0.0449763
0.0455235
0.0465268
0.0476026
0.0489149
0.0504311
0.052247
0.0543994
0.0569759
0.0600533
0.0637506
0.0682036
0.0736012
0.0802168
0.0883612
0.0986892
0.111478
0.12692
0.144539
0.150198
0.148404
0.130734
0.105331
0.0711045
0.0235085
-0.0782639
-0.138955
-0.170365
-0.0898127
-0.118014
-0.100716
-0.0956075
-0.0854429
-0.0813568
-0.072356
-0.0704111
-0.0658413
-0.061524
-0.0533584
-0.0512482
-0.0578659
-0.0703056
-0.0923149
-0.118222
-0.127892
-0.131046
-0.121398
-0.124598
-0.121104
-0.116307
-0.112834
-0.108541
-0.107708
-0.105536
-0.107849
-0.109458
-0.108793
-0.101694
-0.0937174
-0.0863799
-0.0810708
-0.0770452
-0.0734745
-0.0695751
-0.0656343
-0.0632864
-0.0612389
-0.0611127
-0.0641493
-0.0663989
-0.0690702
-0.0728087
-0.0729535
-0.0733097
-0.0738407
-0.0720932
-0.0677218
-0.0566663
-0.042047
-0.0270876
-0.015114
-0.00517333
0.00265153
0.00826438
0.0117187
0.014199
0.0156942
0.0166231
0.0170786
0.0172369
0.0171623
0.0169411
0.0166135
0.0162188
0.0157766
0.0153047
0.014811
0.0143058
0.013787
0.0132674
0.0127299
0.0122047
0.0116406
0.0111202
0.0105046
0.0100157
0.00928819
0.00890434
0.00792031
0.00783683
0.00624646
0.00696019
0.00391035
0.00662497
5.82382e-05
0.0074262
0.0449142
0.0451124
0.0456629
0.0466793
0.0477697
0.0491042
0.0506482
0.0525008
0.0546998
0.0573365
0.0604912
0.0642887
0.0688728
0.0744436
0.0812969
0.0897699
0.10059
0.11413
0.130807
0.150742
0.158865
0.161703
0.148796
0.122438
0.0601566
-0.106354
-0.420423
-0.135146
-0.222231
-0.098592
-0.119796
-0.0985637
-0.096558
-0.0874581
-0.0979203
-0.0748985
-0.0720603
-0.0685918
-0.0655815
-0.0568966
-0.0536082
-0.060137
-0.0785454
-0.116156
-0.177614
-0.12228
-0.140077
-0.122278
-0.124639
-0.119674
-0.114186
-0.114891
-0.109091
-0.119241
-0.109319
-0.106038
-0.1068
-0.107029
-0.101354
-0.0941706
-0.0864008
-0.0792721
-0.0744035
-0.0709557
-0.0685567
-0.0651294
-0.0635696
-0.0618346
-0.0619218
-0.0649626
-0.0672631
-0.0707212
-0.0756417
-0.0763951
-0.0766066
-0.0776161
-0.0756373
-0.0706113
-0.0588302
-0.0436122
-0.0281978
-0.0158362
-0.00561259
0.00245031
0.00823847
0.0117755
0.0143112
0.0158304
0.0167659
0.0172152
0.0173653
0.0172824
0.017051
0.0167126
0.0163071
0.0158546
0.0153733
0.0148713
0.0143588
0.0138335
0.0133083
0.0127656
0.0122364
0.011668
0.011145
0.0105252
0.0100358
0.00930282
0.00892264
0.0079282
0.00785791
0.00624346
0.00699462
0.00388508
0.00669966
-1.70333e-05
0.00759484
0.0449973
0.0452016
0.0457548
0.0467797
0.04788
0.0492293
0.0507919
0.0526691
0.0548994
0.0575765
0.0607833
0.0646481
0.0693209
0.0750092
0.082024
0.0907229
0.101886
0.115966
0.133582
0.155333
0.165703
0.173551
0.169755
0.166928
0.15797
0.15338
-0.0618634
-0.0684767
-0.0682097
-0.0679744
-0.0599769
-0.0571219
-0.0603145
-0.0693713
-0.0789232
-0.0975838
-0.101331
-0.103529
-0.105667
-0.100848
-0.0944892
-0.0857631
-0.0776699
-0.0741979
-0.0853638
-0.0794042
-0.0789307
-0.079813
-0.0777199
-0.0723611
-0.0602262
-0.0447082
-0.0290384
-0.0164348
-0.00601796
0.00221972
0.00814005
0.0117596
0.0143396
0.0158825
0.0168302
0.0172815
0.0174292
0.0173441
0.0171088
0.0167651
0.0163541
0.0158964
0.0154102
0.0149038
0.0143872
0.0138584
0.0133301
0.0127845
0.012253
0.0116821
0.0111577
0.0105355
0.010046
0.00930966
0.00893173
0.00793107
0.00786873
0.00624009
0.007014
0.0038686
0.00674442
-6.33725e-05
0.00770046
0.0451155
0.0453325
0.0458905
0.0469276
0.048043
0.0494139
0.0510042
0.0529176
0.0551942
0.0579308
0.0612143
0.0651782
0.0699811
0.0758409
0.0830899
0.0921126
0.103757
0.118577
0.137461
0.161436
0.174538
0.188245
0.193071
0.203561
0.210794
0.210478
-0.0677885
-0.071799
-0.0719286
-0.0723169
-0.0647688
-0.0619802
-0.0621292
-0.0665492
-0.0709027
-0.0944684
-0.0979541
-0.100574
-0.104223
-0.100912
-0.094837
-0.0835823
-0.0740602
-0.0709548
-0.0784764
-0.0791387
-0.0799154
-0.0819677
-0.0804255
-0.0746606
-0.0621126
-0.046123
-0.0300371
-0.017084
-0.00639965
0.00206595
0.00814707
0.0118652
0.0144825
0.0160381
0.0169873
0.0174312
0.0175656
0.017466
0.0172197
0.0168657
0.0164431
0.0159745
0.0154785
0.0149633
0.0144392
0.0139035
0.0133694
0.0128185
0.0122828
0.0117076
0.0111804
0.0105541
0.0100636
0.00932243
0.00894689
0.00793743
0.00788505
0.00623704
0.00704076
0.00384806
0.00680574
-0.000122577
0.00785217
0.0452729
0.0455014
0.0460657
0.0471188
0.0482536
0.0496527
0.0512789
0.0532393
0.055576
0.0583898
0.0617726
0.0658646
0.0708349
0.0769139
0.0844589
0.0938833
0.106111
0.121801
0.142169
0.168855
0.185678
0.207187
0.224748
0.253245
0.280795
0.290711
-0.0683806
-0.0730676
-0.075002
-0.0777993
-0.0701704
-0.06605
-0.061582
-0.0603102
-0.0609103
-0.0894571
-0.0930936
-0.0963121
-0.10128
-0.0996577
-0.0921795
-0.0770396
-0.0666516
-0.0651032
-0.0819307
-0.081579
-0.0824815
-0.0837199
-0.0825593
-0.0764613
-0.0638988
-0.0478467
-0.0314969
-0.0181898
-0.00717519
0.00161406
0.00794073
0.011815
0.0145353
0.0161319
0.0171026
0.0175525
0.0176841
0.0175761
0.0173185
0.0169531
0.0165214
0.016044
0.0155395
0.0150166
0.0144855
0.0139436
0.0134041
0.0128482
0.0123085
0.0117289
0.0111992
0.0105685
0.0100777
0.00933047
0.00895915
0.00793861
0.00790117
0.00622777
0.0070734
0.00381758
0.00688964
-0.000207391
0.00806442
0.045463
0.0457052
0.0462776
0.0473499
0.0485089
0.0499424
0.0516127
0.0536307
0.0560411
0.0589496
0.0624545
0.0667035
0.0718789
0.0782255
0.086129
0.0960354
0.10895
0.125644
0.147778
0.177185
0.198534
0.228037
0.25633
0.294715
0.328287
0.338294
-0.0792169
-0.0811452
-0.0832309
-0.0858521
-0.0779449
-0.0718521
-0.0624074
-0.0560372
-0.0547528
-0.0852816
-0.089097
-0.0928241
-0.0981691
-0.0964694
-0.0864084
-0.0702679
-0.0613889
-0.062436
-0.0803678
-0.0809328
-0.082058
-0.0839091
-0.0834827
-0.077402
-0.0657201
-0.0498743
-0.0335441
-0.0198411
-0.00843269
0.000791058
0.00747138
0.0115788
0.014465
0.0161525
0.017169
0.0176387
0.0177794
0.0176692
0.0174071
0.0170346
0.0165947
0.0161096
0.0155973
0.0150672
0.0145295
0.0139813
0.0134365
0.0128755
0.0123317
0.0117478
0.0112156
0.0105805
0.0100896
0.00933613
0.00896982
0.00793782
0.00791763
0.00621685
0.0071099
0.00378269
0.00698301
-0.000303914
0.00831758
0.0457166
0.0459764
0.0465585
0.0476568
0.0488475
0.0503268
0.0520556
0.0541501
0.0566582
0.0596921
0.0633577
0.0678126
0.0732541
0.0799422
0.0882914
0.0987661
0.112423
0.130077
0.153545
0.18454
0.208105
0.240425
0.27271
0.314723
0.351325
0.361466
-0.0901624
-0.0913965
-0.0937623
-0.0970907
-0.0875539
-0.0744406
-0.0586925
-0.0461707
-0.041107
-0.0804161
-0.0844654
-0.0882075
-0.0933831
-0.0910437
-0.0798176
-0.0646439
-0.0584024
-0.0610013
-0.0792621
-0.0803055
-0.0813961
-0.0834769
-0.0820102
-0.0773134
-0.0662445
-0.0518671
-0.0360832
-0.0222054
-0.0103316
-0.000543879
0.0066184
0.0110766
0.0142049
0.016055
0.0171682
0.0176886
0.0178531
0.0177529
0.0174928
0.0171159
0.0166734