/*--------------------------------*- C++ -*----------------------------------*\
| =========                 |                                                 |
| \\      /  F ield         | OpenFOAM: The Open Source CFD Toolbox           |
|  \\    /   O peration     | Version:  v2006                                 |
|   \\  /    A nd           | Website:  www.openfoam.com                      |
|    \\/     M anipulation  |                                                 |
\*---------------------------------------------------------------------------*/
FoamFile
{
    version     2.0;
    format      ascii;
    class       volScalarField;
    location    "0.51";
    object      omega;
}
// * * * * * * * * * * * * * * * * * * * * * * * * * * * * * * * * * * * * * //

dimensions      [0 0 -1 0 0 0 0];


internalField   nonuniform List<scalar> 
374400
(
280.879
305.38
293.815
278.063
276.696
281.481
292.632
303.696
312.98
320.699
327.722
334.223
340.487
346.582
352.625
358.508
364.349
370.15
375.672
380.638
384.741
387.897
390.404
392.221
393.686
394.804
395.542
396.661
398.174
400.077
402.78
405.508
407.473
409.04
410.228
411.008
412.185
413.766
415.735
418.503
421.247
423.2
424.737
425.895
426.651
427.785
429.294
431.161
432.996
434.446
436.227
437.989
439.364
440.393
441.062
442.062
443.392
445.024
447.271
449.446
450.979
452.169
453.065
453.645
454.513
455.668
457.085
459.037
460.928
462.262
463.295
464.075
464.578
465.329
466.329
467.561
469.252
471.603
474.745
478.444
482.229
485.757
488.936
491.692
493.93
495.694
497.135
498.342
499.37
500.252
501.02
501.692
502.28
502.789
503.228
503.6
503.916
504.182
504.402
504.582
504.725
504.835
504.921
504.988
505.039
505.079
505.114
505.142
505.167
505.189
505.214
505.235
505.261
505.286
505.304
505.452
505.231
280.881
305.377
293.809
278.053
276.681
281.462
292.607
303.67
312.956
320.677
327.708
334.217
340.494
346.605
352.668
358.577
364.446
370.278
375.833
380.829
384.954
388.128
390.646
392.472
393.942
395.064
395.806
396.928
398.448
400.357
403.068
405.803
407.771
409.342
410.533
411.315
412.493
414.075
416.047
418.816
421.562
423.514
425.051
426.208
426.962
428.095
429.601
431.466
433.297
434.745
436.521
438.278
439.649
440.675
441.342
442.338
443.663
445.289
447.525
449.689
451.214
452.398
453.288
453.865
454.727
455.874
457.283
459.222
461.1
462.424
463.45
464.223
464.722
465.467
466.46
467.682
469.359
471.694
474.812
478.482
482.241
485.745
488.903
491.647
493.882
495.649
497.095
498.315
499.354
500.25
501.031
501.717
502.317
502.836
503.282
503.661
503.984
504.253
504.477
504.656
504.799
504.908
504.992
505.058
505.109
505.149
505.182
505.209
505.236
505.258
505.282
505.304
505.33
505.355
505.374
505.524
505.303
280.884
305.369
293.794
278.025
276.642
281.42
292.557
303.615
312.902
320.634
327.677
334.206
340.509
346.656
352.766
358.73
364.662
370.565
376.19
381.251
385.428
388.637
391.182
393.025
394.509
395.641
396.389
397.521
399.052
400.976
403.703
406.454
408.432
410.008
411.203
411.987
413.169
414.755
416.732
419.505
422.249
424.2
425.734
426.889
427.641
428.771
430.273
432.13
433.953
435.393
437.158
438.903
440.264
441.281
441.943
442.929
444.242
445.852
448.065
450.202
451.707
452.874
453.752
454.32
455.17
456.301
457.687
459.595
461.44
462.74
463.747
464.507
464.996
465.729
466.704
467.902
469.548
471.838
474.895
478.492
482.176
485.614
488.724
491.436
493.658
495.43
496.892
498.131
499.199
500.126
500.937
501.651
502.276
502.816
503.281
503.675
504.008
504.285
504.511
504.692
504.833
504.94
505.02
505.082
505.129
505.165
505.196
505.22
505.244
505.266
505.291
505.311
505.338
505.363
505.382
505.531
505.31
280.887
305.358
293.772
277.979
276.576
281.345
292.464
303.514
312.801
320.541
327.603
334.157
340.501
346.699
352.878
358.929
364.963
370.98
376.724
381.893
386.155
389.427
392.017
393.892
395.4
396.549
397.308
398.457
400.009
401.956
404.714
407.492
409.487
411.075
412.276
413.065
414.254
415.847
417.832
420.612
423.359
425.308
426.838
427.989
428.738
429.862
431.356
433.201
435.008
436.436
438.184
439.91
441.252
442.256
442.908
443.88
445.171
446.755
448.926
451.021
452.493
453.633
454.489
455.043
455.869
456.969
458.317
460.172
461.965
463.227
464.203
464.938
465.411
466.117
467.059
468.217
469.809
472.026
474.986
478.47
482.04
485.38
488.415
491.084
493.293
495.078
496.57
497.853
498.966
499.939
500.798
501.555
502.219
502.793
503.284
503.702
504.05
504.336
504.564
504.741
504.876
504.975
505.046
505.1
505.138
505.166
505.192
505.212
505.234
505.253
505.275
505.296
505.324
505.349
505.369
505.523
505.303
280.893
305.338
293.735
277.905
276.467
281.221
292.313
303.342
312.621
320.365
327.444
334.027
340.418
346.684
352.956
359.128
365.308
371.496
377.419
382.756
387.154
390.523
393.189
395.113
396.66
397.838
398.615
399.789
401.374
403.362
406.169
408.989
411.011
412.617
413.832
414.629
415.829
417.436
419.434
422.226
424.975
426.921
428.447
429.592
430.338
431.455
432.938
434.767
436.554
437.963
439.685
441.381
442.698
443.682
444.32
445.271
446.533
448.078
450.189
452.216
453.639
454.737
455.563
456.097
456.894
457.952
459.248
461.024
462.734
463.936
464.864
465.564
466.015
466.69
467.589
468.693
470.207
472.312
475.121
478.426
481.818
485.01
487.938
490.548
492.747
494.557
496.096
497.437
498.619
499.665
500.59
501.409
502.127
502.749
503.28
503.727
504.096
504.394
504.626
504.804
504.932
505.024
505.086
505.128
505.158
505.178
505.197
505.211
505.229
505.244
505.266
505.286
505.313
505.339
505.359
505.513
505.295
280.902
305.31
293.679
277.791
276.299
281.029
292.073
303.066
312.321
320.058
327.143
333.747
340.188
346.528
352.917
359.244
365.626
372.056
378.244
383.835
388.443
391.969
394.751
396.758
398.366
399.588
400.395
401.612
403.251
405.302
408.192
411.083
413.15
414.789
416.026
416.837
418.055
419.682
421.703
424.518
427.278
429.225
430.746
431.884
432.624
433.732
435.198
437.004
438.763
440.147
441.833
443.489
444.772
445.727
446.344
447.262
448.479
449.965
451.991
453.926
455.277
456.314
457.09
457.59
458.334
459.322
460.53
462.187
463.779
464.893
465.748
466.393
466.805
467.42
468.242
469.254
470.647
472.59
475.194
478.262
481.427
484.436
487.239
489.796
492.002
493.86
495.466
496.892
498.161
499.295
500.31
501.211
502.003
502.687
503.271
503.758
504.153
504.462
504.697
504.866
504.983
505.057
505.101
505.127
505.14
505.149
505.158
505.168
505.182
505.197
505.218
505.238
505.269
505.298
505.322
505.478
505.264
280.916
305.269
293.598
277.625
276.051
280.741
291.712
302.641
311.844
319.55
326.618
333.224
339.702
346.112
352.628
359.149
365.788
372.556
379.124
385.097
390.029
393.799
396.765
398.899
400.605
401.898
402.751
404.036
405.762
407.917
410.935
413.937
416.072
417.761
419.031
419.862
421.109
422.769
424.826
427.672
430.44
432.383
433.894
435.023
435.756
436.85
438.296
440.07
441.79
443.139
444.774
446.371
447.602
448.516
449.107
449.986
451.145
452.555
454.461
456.257
457.503
458.457
459.172
459.632
460.318
461.226
462.328
463.822
465.235
466.222
466.979
467.554
467.923
468.475
469.211
470.112
471.342
473.052
475.321
478.018
480.829
483.559
486.199
488.705
490.94
492.886
494.61
496.159
497.56
498.818
499.944
500.946
501.83
502.594
503.24
503.77
504.194
504.52
504.76
504.924
505.026
505.083
505.107
505.112
505.108
505.104
505.102
505.105
505.116
505.13
505.151
505.174
505.207
505.238
505.266
505.426
505.216
280.935
305.212
293.486
277.391
275.699
280.331
291.189
302.016
311.125
318.753
325.763
332.324
338.799
345.25
351.884
358.617
365.581
372.79
379.914
386.463
391.904
396.069
399.338
401.683
403.554
404.965
405.895
407.292
409.161
411.481
414.71
417.894
420.144
421.912
423.234
424.097
425.387
427.097
429.203
432.095
434.881
436.82
438.322
439.438
440.159
441.235
442.653
444.388
446.061
447.368
448.943
450.477
451.65
452.516
453.071
453.892
454.97
456.273
458.026
459.653
460.762
461.589
462.199
462.584
463.149
463.895
464.795
466.02
467.169
467.958
468.544
468.983
469.259
469.668
470.219
470.905
471.867
473.234
475.093
477.334
479.751
482.239
484.764
487.273
489.583
491.666
493.527
495.197
496.711
498.089
499.348
500.488
501.505
502.384
503.121
503.72
504.189
504.538
504.779
504.927
505.003
505.023
505.016
504.992
504.966
504.947
504.937
504.938
504.948
504.966
504.995
505.024
505.066
505.104
505.142
505.313
505.114
280.961
305.135
293.333
277.081
275.217
279.767
290.466
301.13
310.086
317.568
324.437
330.877
337.268
343.678
350.367
357.292
364.616
372.406
380.28
387.715
393.974
398.775
402.544
405.244
407.389
409
410.061
411.649
413.758
416.362
419.935
423.401
425.824
427.707
429.103
430.011
431.358
433.129
435.291
438.214
440.983
442.89
444.353
445.435
446.132
447.169
448.53
450.189
451.774
453.006
454.478
455.897
456.972
457.761
458.266
459.014
459.991
461.162
462.695
464.068
464.993
465.685
466.2
466.527
467.017
467.651
468.395
469.329
470.13
470.666
471.06
471.364
471.555
471.842
472.221
472.674
473.267
474.073
475.155
476.56
478.225
480.199
482.535
485.086
487.62
489.976
492.076
493.936
495.563
497.084
498.535
499.869
501.047
502.051
502.883
503.552
504.069
504.445
504.692
504.826
504.872
504.862
504.817
504.761
504.716
504.682
504.67
504.673
504.692
504.72
504.763
504.804
504.863
504.913
504.965
505.151
504.975
280.991
305.042
293.148
276.688
274.612
279.053
289.537
299.989
308.7
315.944
322.564
328.749
334.9
341.118
347.694
354.688
362.318
370.75
379.644
388.339
395.843
401.76
406.382
409.678
412.287
414.234
415.515
417.42
419.931
423.004
427.156
431.079
433.782
435.839
437.332
438.295
439.703
441.507
443.664
446.477
449.096
450.89
452.264
453.291
453.956
454.95
456.27
457.898
459.475
460.705
462.187
463.625
464.714
465.507
466.009
466.741
467.681
468.785
470.201
471.391
472.125
472.59
472.881
473.041
473.23
473.44
473.641
473.854
473.966
473.985
473.955
473.903
473.853
473.779
473.712
473.657
473.663
473.696
473.838
474.346
475.472
477.338
479.774
482.579
485.482
488.056
490.155
492.039
493.775
495.441
497.12
498.706
500.11
501.301
502.285
503.071
503.673
504.098
504.359
504.477
504.491
504.441
504.35
504.268
504.209
504.18
504.183
504.209
504.262
504.319
504.4
504.468
504.562
504.638
504.723
504.94
504.808
281.027
304.939
292.934
276.261
273.921
278.237
288.473
298.65
307.039
313.97
320.176
325.984
331.653
337.464
343.589
350.374
358.048
366.881
376.767
386.999
396.198
403.475
409.373
413.656
417.072
419.631
421.314
423.824
427.092
431.063
436.225
440.802
443.753
445.874
447.339
448.26
449.57
451.202
453.089
455.446
457.486
458.832
459.837
460.6
461.092
461.848
462.886
464.2
465.512
466.555
467.814
469.029
469.93
470.6
471.022
471.661
472.493
473.501
474.814
475.976
476.79
477.447
477.969
478.305
478.85
479.56
480.309
480.886
481.011
480.914
480.565
480.243
480.032
479.691
479.191
478.498
477.466
476.12
474.424
472.676
472.14
473.05
475.544
479.04
482.592
485.458
487.481
489.409
491.319
493.184
495.121
496.991
498.643
500.024
501.167
502.105
502.841
503.368
503.693
503.839
503.851
503.779
503.667
503.582
503.542
503.546
503.598
503.681
503.796
503.903
504.04
504.153
504.304
504.42
504.551
504.817
504.748
281.065
304.829
292.713
275.819
273.175
277.373
287.309
297.211
305.187
311.735
317.371
322.682
327.566
332.638
337.942
343.906
350.946
359.518
369.939
381.564
392.904
402.387
410.573
416.352
420.98
424.352
426.513
429.631
433.391
437.645
442.081
445.03
446.538
447.373
447.857
448.122
448.495
448.869
449.356
449.76
449.83
449.797
449.649
449.557
449.561
449.61
449.757
450.073
450.503
450.77
450.935
451.135
451.414
451.811
452.085
452.682
453.762
455.646
458.916
462.063
464.095
465.358
466.112
466.513
466.957
467.424
467.851
468.817
470.225
471.134
471.697
472.023
472.195
472.381
472.525
472.537
472.19
471.107
469.136
466.698
466.172
467.642
471.079
475.514
479.569
482.267
483.838
485.414
487.423
489.518
491.725
494
496.036
497.761
499.205
500.432
501.424
502.145
502.607
502.844
502.91
502.868
502.786
502.741
502.756
502.839
502.995
503.169
503.376
503.565
503.783
503.965
504.184
504.353
504.549
504.859
504.861
281.099
304.724
292.496
275.382
272.418
276.518
286.095
295.798
303.233
309.371
314.368
318.959
322.9
326.806
330.798
335.042
340.28
347.199
356.75
368.934
382.968
394.412
404.692
412.414
417.624
421.021
423.03
425.888
428.793
432.724
433.688
432.461
430.379
427.776
425.546
423.971
421.481
418.158
414.144
408.917
405.729
404.124
404.162
404.438
404.901
406.194
408.369
411.568
415.032
417.878
421.305
424.392
426.445
428.078
429.024
430.28
432.706
434.475
438.905
447.172
454.743
462.037
467.864
471.775
477.898
485.799
493.565
497.531
497.258
494.854
491.34
489.064
487.62
485.564
483.204
480.596
476.565
470.316
461.822
454.541
452.785
455.855
462.818
469.588
474.481
476.794
477.396
478.335
480.493
483.195
486.126
489.259
492.094
494.412
496.325
497.956
499.319
500.37
501.111
501.578
501.804
501.844
501.831
501.838
501.943
502.133
502.403
502.69
503.01
503.298
503.608
503.864
504.158
504.38
504.643
504.98
505.06
281.128
304.638
292.315
274.98
271.752
275.733
285.027
294.492
301.416
307.217
311.479
315.348
318.287
320.748
323.007
324.811
326.848
330.084
336.548
349.08
364.04
382.216
401.662
420.291
436.852
452.083
464.746
485.937
517.064
548.48
562.341
559.423
553.054
543.712
535.87
530.516
522.013
510.831
495.074
467.38
443.919
431.248
429.917
430.796
432.484
437.697
448.411
464.017
479.315
490.385
500.675
507.305
510.79
512.327
513.002
513.514
513.274
513.169
514.412
514.294
510.846
499.978
487.605
478.858
466.76
456.479
454.924
458.654
463.998
466.987
469.038
470.542
471.52
473.054
474.897
476.357
475.898
471.687
458.947
443.873
437.8
441.435
450.493
459.303
465.191
467.218
467.008
467.129
468.954
472.338
476.101
480.211
484.016
487.093
489.724
492.131
494.317
496.191
497.715
498.863
499.614
500.018
500.257
500.462
500.757
501.115
501.552
501.989
502.44
502.834
503.24
503.57
503.937
504.205
504.529
504.886
505.039
281.147
304.579
292.205
274.63
271.263
275.09
284.254
293.377
300.048
305.399
309.24
312.294
314.428
315.728
315.834
315.38
313.565
311.466
313.441
323.942
351.493
402.26
489.055
554.996
600.014
631.063
647.433
673.126
695.277
709.665
702.491
683.985
664.365
648.063
636.193
628.708
618.064
605.218
586.074
541.841
495.65
467.893
455.106
455.271
456.795
462.782
478.952
503.254
526.449
543.484
557.79
565.49
567.643
566.545
564.563
558.513
538.969
501.315
433.164
349.717
315.527
299.518
287.999
279.225
267.933
261.852
263.252
274.867
293.985
309.762
323.57
334.142
341.099
352.089
367.038
384.548
404.897
424.227
429.402
424.044
424.993
432.697
444.345
453.187
457.161
456.894
454.332
451.47
450.998
452.921
456.98
461.507
466.431
471.48
476.543
481.446
485.941
489.843
493.061
495.495
497.121
498.08
498.667
499.099
499.568
500.079
500.654
501.208
501.76
502.234
502.704
503.079
503.492
503.786
504.147
504.509
504.702
281.157
304.55
292.135
274.387
270.903
274.646
283.708
292.589
299.105
304.063
307.65
310.139
311.544
311.903
310.754
308.15
303.003
295.038
291.344
307.308
377.573
516.612
606.472
644.065
663.267
676.835
683.662
698.151
701.401
693.585
668.341
638.545
615.246
597.36
584.661
575.737
565.597
544.44
501.991
435.198
367.769
369.265
383.626
406.549
426.579
458.708
508.187
547.353
594.372
596.319
577.367
531.489
480.069
433.945
407.926
385.201
339.839
293.699
285.683
341.182
369.219
373.18
372.174
371.624
369.256
363.248
354.469
342.863
335.041
332.26
331.87
332.89
335.303
338.882
344.309
351.412
367.345
391.536
408.591
412.011
416.578
425.689
435.688
445.251
448.965
447.759
443.559
437.544
433.686
432.638
433.83
437.4
442.943
450.865
460.7
470.321
478.659
485.413
490.509
493.998
496.089
497.18
497.755
498.156
498.634
499.186
499.827
500.446
501.056
501.568
502.071
502.463
502.893
503.191
503.573
503.93
504.145
281.161
304.543
292.076
274.236
270.639
274.351
283.34
292.045
298.473
303.146
306.497
308.735
309.454
309.212
307.28
302.992
295.185
283.035
273.239
304.352
442.616
562.384
615.02
591.445
552.978
554.936
570.202
574.809
567.749
547.094
531.193
502.613
476.45
457.152
438.493
423.109
393.109
344.794
322.565
302.828
292.977
320.734
375.268
408.31
438.966
465.72
523.365
581.165
579.773
555.337
458.54
326.974
267.527
262.033
267.868
283.594
310.372
348.84
455.651
526.321
529.432
507.977
466.032
445.001
425.883
417.37
414.218
409.001
405.277
404.798
405.617
407.291
409.461
411.67
415.027
416.414
413.144
412.265
411.347
405.242
406.286
412.057
419.259
431.395
436.823
438.868
438.037
434.431
429.709
425.988
424.298
425.456
431.025
441.135
454.162
466.798
477.257
485.25
490.866
494.322
496.082
496.774
497.058
497.314
497.754
498.333
499.026
499.692
500.34
500.874
501.394
501.791
502.235
502.534
502.934
503.281
503.519
281.166
304.538
292.027
274.123
270.458
274.151
283.094
291.661
298.017
302.539
305.633
307.786
307.95
307.364
304.791
299.304
289.66
274.154
260.417
317.016
472.729
562.063
534.817
495.438
487.095
509.386
536.048
531.25
509.939
483.862
443.71
370.748
317.015
270.056
249.112
247.821
255.021
237.953
223.811
297.885
326.221
322.525
344.273
378.936
423.099
450.37
520.462
532.014
479.731
373.011
287.068
260.477
258.978
271.64
286.579
315.463
371.663
478.299
567.563
589.152
566.263
545.366
489.452
459.076
428.917
420.403
421.582
418.924
417.345
419.002
423.083
429.141
433.897
441.443
451.143
460.619
460.933
445.542
419.965
398.222
392.612
394.707
402.821
419.115
429.182
437.54
442.068
440.83
435.241
429.552
426.324
426.987
432.8
443.883
457.638
470.3
480.23
487.555
492.42
495.071
496.099
496.264
496.269
496.406
496.855
497.494
498.248
498.958
499.635
500.185
500.717
501.123
501.578
501.881
502.301
502.638
502.903
281.174
304.531
291.981
274.021
270.324
273.996
282.902
291.362
297.639
302.076
304.947
306.991
306.822
305.893
302.792
296.374
285.327
267.07
251.069
326.187
479.795
537.929
500.332
458.093
442.897
493.409
508.434
456.978
388.209
311.476
231.761
206.906
208.111
203.058
211.901
232.731
241.213
208.556
254.365
319.774
319.018
336.615
420.406
500.638
508.897
494.329
474.625
370.295
293.092
275.996
261.898
255.418
270.858
286.249
304.741
358.04
456.262
569.556
625.504
596.174
570.704
552.385
486.395
439.937
360.694
324.847
322.654
326.516
335.863
348.376
368.212
386.444
402.387
424.623
445.508
473.559
489.73
477.133
433.887
391.862
376.404
377.787
392.205
413.317
428.893
443.811
450.875
450.195
444.275
438.042
434.658
435.704
442.179
452.955
465.735
476.802
484.759
490.354
493.842
495.423
495.711
495.497
495.316
495.42
495.93
496.655
497.478
498.229
498.933
499.496
500.042
500.456
500.926
501.236
501.675
502.006
502.3
281.184
304.502
291.926
273.938
270.22
273.871
282.747
291.14
297.35
301.73
304.447
306.357
306.036
304.805
301.293
294.208
282.162
261.847
245.426
333.016
480.536
522.245
453.469
416.018
402.916
475.988
481.462
372.35
272.471
186.251
150.05
160.31
152.978
149.764
187.19
223.471
236.924
204.9
297.391
339.845
336.676
496.006
505.93
534.165
511.677
345.774
262.55
265.065
243.914
234.454
227.321
225.242
239.888
255.597
261.503
362.185
502.068
611.008
650.687
586.755
556.705
534.686
414.244
387.866
259.944
214.483
210.938
213.134
228.467
248.652
280.452
305.027
341.06
392.105
431.156
470.307
502.06
493.16
442.46
385.177
362.266
365.722
387.864
411.79
431.844
448.116
455.776
455.633
450.392
444.749
442.091
443.63
450.419
460.619
472.416
482.077
488.391
492.385
494.478
495.08
494.896
494.424
494.24
494.423
495.062
495.881
496.767
497.555
498.282
498.859
499.417
499.842
500.328
500.645
501.105
501.43
501.755
281.186
304.497
291.914
273.905
270.153
273.786
282.638
290.995
297.159
301.5
304.12
305.928
305.516
304.096
300.298
292.808
280.105
258.486
242.287
336.343
476.098
510.275
437.854
401.036
387.329
429.197
217.15
233.152
219.192
321.854
363.199
410.659
528.367
508.671
518.718
203.978
336.823
520.793
626.703
656.663
574.957
539.606
503.166
353.546
291.447
331.864
405.358
461.849
511.13
505.659
450.498
379.81
351.963
358.88
386.241
410.719
432.326
448.885
456.871
457.866
454.093
449.158
446.884
448.49
455.057
464.638
475.712
484.913
490.358
493.31
494.512
494.552
494.071
493.52
493.384
493.665
494.418
495.309
496.244
497.057
497.8
498.386
498.955
499.39
499.887
500.212
500.687
501.012
501.351
281.183
304.501
291.919
273.874
270.053
273.657
282.472
290.783
296.879
301.159
303.643
305.287
304.741
303.05
298.825
290.754
277.09
253.597
237.355
338.786
469.775
492.726
401.986
366.583
353.841
381.32
205.352
229.291
236.174
341.006
374.087
498.556
545.621
509.824
508.45
187.722
333.949
547.257
644.108
659.836
556.165
512.372
460.482
316.409
200.236
221.997
287.61
409.461
504.91
516.956
457.88
371.713
334.578
352.265
382.923
406.74
430.115
447.347
457.025
460.266
459.023
455.784
453.963
455.222
460.874
469.297
478.958
487.32
492.01
493.83
493.918
493.297
492.414
491.887
491.892
492.404
493.351
494.368
495.38
496.234
497.003
497.606
498.195
498.645
499.164
499.504
499.999
500.337
500.688
281.187
304.476
291.889
273.815
269.912
273.48
282.247
290.505
296.511
300.701
303.029
304.447
303.728
301.694
296.911
288.116
273.255
247.589
231.296
339.65
459.162
473.749
377.864
341.814
328.129
328.687
212.391
240.272
228.603
322.11
370.686
525.5
550.14
505.886
504.17
221.412
361.113
579.816
659.293
654.635
520.423
469.936
415.443
291.571
207.832
212.856
227.49
276.36
437.132
501.759
451.648
345.99
320.547
348.274
374.251
397.204
421.547
441.431
455.291
462.138
464.458
464.127
462.856
463.121
466.341
472.414
480.784
488.037
491.457
491.96
491.189
489.927
489.114
488.948
489.393
490.416
491.669
492.88
494
494.914
495.722
496.357
496.983
497.467
498.023
498.389
498.922
499.276
499.658
281.193
304.446
291.844
273.738
269.747
273.277
281.978
290.17
296.067
300.136
302.298
303.426
302.497
300.063
294.631
285.037
268.899
241.145
223.269
333.775
444.649
453.618
350.188
308.875
289.073
283.849
215.261
247.553
244.992
237.949
387.004
510.929
523.931
490.616
506.285
265.45
400.523
610.357
673.631
618.437
483.59
440.097
405.838
309.038
225.792
238.846
236.136
245.938
272.732
389.199
380.673
301.371
302.972
329.201
352.33
378.03
411.75
438.355
454.873
465.221
470.867
473.116
472.504
470.495
470.276
472.944
478.984
484.13
486.255
486.131
484.985
484.013
483.862
484.462
485.857
487.523
489.209
490.675
491.942
492.939
493.815
494.509
495.201
495.741
496.359
496.77
497.361
497.739
498.176
281.203
304.412
291.78
273.622
269.537
273.02
281.632
289.723
295.487
299.366
301.344
302.063
300.859
297.915
291.667
281.111
263.64
233.872
211.919
319.104
430.304
440.215
335.144
292.785
267.672
253.288
195.538
235.636
236.74
291.155
455.291
449.005
470.866
446.176
478.882
277.207
398.583
607.239
666.943
592.178
471.42
432.45
419.053
349.69
225.681
234.091
217.295
335.225
372.13
371.381
338.45
305.446
281.969
279.147
306.133
355.542
405.544
441.098
461.43
472.607
478.717
480.221
478.774
474.892
471.511
470.946
472.327
473.365
473.442
473.244
473.297
474.012
475.626
477.807
480.298
482.708
484.923
486.743
488.262
489.445
490.485
491.323
492.151
492.806
493.538
494.033
494.734
495.149
495.707
281.212
304.39
291.731
273.491
269.348
272.789
281.328
289.304
294.956
298.636
300.462
300.787
299.338
295.934
288.978
277.655
259.46
229.096
200.37
291.714
418.464
439.425
345.729
298.597
275.123
263.04
168.074
197.541
262.974
465.792
528.36
398.685
407.057
403.993
435.495
269.186
357.569
587.16
654.931
596.351
481.849
452.018
448.399
401.059
239.663
240.757
225.046
321.987
388.522
411.309
363.535
297.37
257.276
236.269
285.391
353.681
416.914
458.14
477.386
483.026
483.267
481.885
476.963
470.183
465.24
462.784
460.223
458.084
457.485
458.556
461.202
464.428
467.793
471.022
474.16
477.033
479.63
481.782
483.611
485.068
486.355
487.397
488.407
489.211
490.089
490.691
491.539
491.991
492.718
281.22
304.378
291.698
273.387
269.23
272.642
281.135
289.019
294.598
298.148
299.869
299.936
298.324
294.61
287.21
275.447
256.994
227.183
194.118
262.404
407.094
441.971
366.202
315.97
296.449
291.852
165.18
244.915
402.545
532.046
542.887
384.87
335.774
368.371
396.097
286.64
355.364
571.631
645.327
601.869
502.087
486.408
486.782
448.827
259.816
259.172
215.395
281.704
343.22
371.573
369.884
293.434
247.042
235.202
289.762
362.121
429.392
473.081
488.753
487.789
479.345
468.388
458.87
451.906
448.642
447.723
446.336
445.633
446.717
449.927
454.088
458.378
462.355
465.951
469.338
472.436
475.281
477.693
479.782
481.471
482.962
484.17
485.329
486.254
487.251
487.943
488.914
489.391
490.279
281.228
304.369
291.663
273.303
269.14
272.538
280.987
288.81
294.313
297.787
299.395
299.313
297.542
293.604
285.844
273.885
255.138
226.371
191.714
231.475
389.645
445.678
397.291
345.942
332.034
331.798
269.398
377.656
465.329
546.099
523.85
384.317
278.485
349.068
376.088
309.986
356.365
557.371
635.936
610.918
521.77
508.127
516.546
485.088
273.936
277.774
214.072
305.525
339.234
359.363
363.182
299.029
253.372
243.758
295.004
366.951
434.835
478.744
492.494
486.902
467.506
449.129
436.543
430.805
430.275
432.185
434.248
436.654
440.166
444.59
449.295
453.772
457.879
461.615
465.143
468.417
471.476
474.116
476.431
478.314
479.98
481.328
482.618
483.651
484.754
485.528
486.61
487.112
488.144
281.237
304.344
291.612
273.238
269.064
272.456
280.867
288.665
294.099
297.533
299.037
298.884
296.976
292.87
284.857
272.794
253.833
226.016
191.26
209.882
368.795
446.005
428.657
373.679
360.066
396.613
432.265
450.539
481.345
538.668
494.422
372.8
242.016
345.555
384.478
334.216
358.787
546.293
626.946
621.168
536.822
524.337
540.431
508.523
286.838
284.201
234.433
319.002
344.432
358.592
359.384
306.13
263.856
251.95
298.658
368.212
435.731
479.142
489.41
479.318
454.804
433.579
420.396
415.987
417.147
421.806
426.932
431.734
436.556
441.392
446.023
450.322
454.346
458.128
461.779
465.201
468.435
471.247
473.728
475.756
477.553
479.012
480.404
481.521
482.712
483.553
484.73
485.258
486.408
281.238
304.339
291.601
273.218
269.015
272.399
280.783
288.569
293.963
297.367
298.801
298.604
296.611
292.392
284.237
272.079
253.051
225.767
192.024
194.591
352.208
444.621
444.997
400.221
383.484
418.95
462.961
346.323
309.801
307.622
303.175
308.168
331.412
383.006
419.095
465.592
458.235
481.819
521.409
478.186
370.29
229.258
322.636
369.369
345.834
322.586
319.778
287.622
169.986
100.725
96.9363
106
126.654
228.074
333.65
358.452
539.058
622.508
626.883
544.823
532.441
558.054
535.414
397.411
228.067
231.496
273.155
285.503
230.388
205.761
193.625
228.684
294.243
281.97
257.782
322.616
346.919
362.594
359.108
310.999
271.347
256.753
299.665
366.603
432.264
472.659
480.743
469.242
444.259
423.488
411.49
408.259
410.381
416.555
423.205
429.158
434.534
439.426
443.873
447.977
451.893
455.677
459.422
462.966
466.327
469.257
471.85
473.975
475.861
477.396
478.858
480.037
481.291
482.179
483.421
483.975
485.201
281.235
304.347
291.609
273.21
268.943
272.312
280.658
288.431
293.765
297.129
298.457
298.196
296.085
291.696
283.355
271.024
251.947
225.348
194.053
177.137
300.934
438.397
478.292
436.993
421.265
442.334
476.281
455.848
456.598
459.526
475.012
486.277
504.622
503.428
495.849
480.727
430.826
480.425
507.034
456.654
369.022
258.398
241.519
300.812
320.311
325.438
332.797
319.621
235.22
136.761
127.174
139.256
143.617
202.337
313.171
345.41
517.729
614.512
632.158
558.914
548.853
578.485
560.135
434.82
248.178
303.834
329.557
319.416
266.016
244.336
220.063
267.667
285.629
254.357
282.268
325.771
351.899
370.962
360.816
318.361
282.068
261.418
296.928
357.946
418.852
453.775
459.131
447.235
425.446
408.644
400.536
400.244
404.529
412.026
419.546
426.251
431.902
436.602
440.649
444.378
448.069
451.818
455.688
459.444
463.027
466.147
468.914
471.187
473.211
474.865
476.441
477.717
479.069
480.039
481.378
481.984
483.32
281.236
304.328
291.587
273.182
268.845
272.191
280.499
288.247
293.519
296.825
298.022
297.684
295.423
290.814
282.254
269.655
250.557
224.685
196.935
173.717
222.69
397.882
477.811
504.367
518.751
532.22
545.233
566.111
572.412
583.352
605.86
604.353
583.642
529.864
448.885
383.026
407.08
481.84
474.299
442.202
397.959
369.515
334.087
314.533
312.358
313.234
323.008
301.409
194.655
159.934
153.828
162.947
176.258
183.287
224.901
292.556
470.866
594.42
632.094
572.718
564.45
611.7
589.907
494.121
287.286
317.821
347.42
340.846
300.622
274.739
246.623
239.795
236.496
236.998
303.83
333.412
363.806
387.665
367.591
323.541
281.608
252.629
273.81
325.444
375.15
403.707
409.825
404.611
395.782
391.403
391.588
395.28
402.57
410.591
418.039
424.278
429.187
433.036
436.293
439.408
442.73
446.368
450.339
454.331
458.215
461.632
464.672
467.174
469.408
471.238
472.985
474.405
475.908
476.997
478.487
479.17
480.675
281.241
304.306
291.556
273.14
268.74
272.056
280.325
288.023
293.242
296.465
297.52
297.093
294.64
289.811
280.959
268.09
248.805
223.53
198.31
183.982
176.128
259.566
396.783
467.271
506.447
535.14
559.989
596.047
635.041
649.52
621.031
529.215
411.403
322.51
319.603
347.165
430.113
464.811
448.003
441.97
530.002
562.514
550.243
519.408
478.702
373.119
259.484
199.909
174.489
158.61
150.156
180.849
216.792
215.797
212.368
215.654
335.363
537.141
614.265
590.27
594.093
622.241
587.603
494.779
294.511
342.015
378.967
381.147
327.86
288.918
256.314
245.012
249.347
283.699
324.68
353.27
382.096
398.694
372.983
322.939
266.841
213.082
201.214
242.015
291.571
326.512
350.289
365.751
375.352
382.084
388.498
395.678
403.611
411.495
418.196
423.094
426.398
428.733
430.786
433.082
435.95
439.43
443.455
447.652
451.83
455.561
458.922
461.715
464.239
466.323
468.331
469.969
471.713
472.973
474.699
475.486
477.232
281.248
304.28
291.517
273.073
268.622
271.897
280.129
287.737
292.908
296.014
296.91
296.36
293.68
288.55
279.371
266.025
246.346
220.757
198.023
190.571
189.1
228.553
327.777
389.008
428.316
465.938
489.556
524.924
562.816
586.088
572.896
522.07
454.179
386.852
363.606
382.79
421.963
418.381
431.548
567.937
672.984
661.206
658.423
643.384
605.771
448.652
285.64
277.387
260.774
259.319
268.103
280.159
281.514
281.848
282.098
278.509
266.382
316.792
523.873
567.769
576.412
584.15
547.239
469.682
297.181
305.923
363.283
372.794
324.618
282.702
266.71
263.114
267.105
286.313
329.96
370.815
390.31
392.931
368.147
298.99
255.432
236.605
244.464
273.038
296.489
317.077