/*--------------------------------*- C++ -*----------------------------------*\
| =========                 |                                                 |
| \\      /  F ield         | OpenFOAM: The Open Source CFD Toolbox           |
|  \\    /   O peration     | Version:  v2006                                 |
|   \\  /    A nd           | Website:  www.openfoam.com                      |
|    \\/     M anipulation  |                                                 |
\*---------------------------------------------------------------------------*/
FoamFile
{
    version     2.0;
    format      ascii;
    class       volScalarField;
    location    "0.54";
    object      k;
}
// * * * * * * * * * * * * * * * * * * * * * * * * * * * * * * * * * * * * * //

dimensions      [0 2 -2 0 0 0 0];


internalField   nonuniform List<scalar> 
374400
(
0.0967996
0.11553
0.106973
0.0950557
0.0936564
0.0969143
0.10498
0.113738
0.121375
0.127831
0.133712
0.139204
0.144501
0.149672
0.154875
0.16005
0.165243
0.170449
0.175435
0.179913
0.183603
0.186441
0.1887
0.190343
0.191669
0.192679
0.193357
0.194378
0.195761
0.197516
0.200032
0.202601
0.204468
0.205969
0.207105
0.207863
0.209003
0.210534
0.212459
0.215185
0.217919
0.219885
0.221446
0.22262
0.2234
0.224569
0.226126
0.228073
0.230003
0.23154
0.233435
0.235323
0.236808
0.237915
0.238648
0.23974
0.241188
0.24298
0.245462
0.247882
0.249599
0.250943
0.251946
0.25261
0.253599
0.254911
0.256533
0.258782
0.260979
0.262542
0.263764
0.264679
0.265282
0.266184
0.267377
0.268858
0.270907
0.273788
0.277737
0.282578
0.287759
0.292822
0.297601
0.301916
0.305514
0.308365
0.310666
0.312562
0.314155
0.315507
0.31667
0.317682
0.318564
0.319332
0.319996
0.320561
0.321043
0.321451
0.321793
0.322076
0.322305
0.322485
0.322626
0.322735
0.32282
0.322885
0.322938
0.322981
0.323017
0.323049
0.323082
0.323108
0.323141
0.323172
0.323193
0.323374
0.323103
0.0968008
0.115529
0.106969
0.0950488
0.0936455
0.0969009
0.104961
0.113717
0.121354
0.127813
0.1337
0.139198
0.144507
0.149693
0.154913
0.160113
0.165333
0.170571
0.17559
0.180098
0.183812
0.18667
0.188942
0.190594
0.191928
0.192943
0.193624
0.19465
0.19604
0.197803
0.20033
0.202908
0.204781
0.206285
0.207425
0.208185
0.209328
0.210863
0.212791
0.215522
0.218258
0.220226
0.221787
0.222962
0.223741
0.22491
0.226466
0.228411
0.230338
0.231873
0.233765
0.235648
0.237129
0.238234
0.238964
0.240053
0.241496
0.243282
0.245754
0.248163
0.249872
0.251208
0.252206
0.252866
0.253849
0.255153
0.256765
0.259
0.261183
0.262735
0.263948
0.264856
0.265455
0.26635
0.267533
0.269002
0.271035
0.273895
0.277818
0.282623
0.287769
0.292802
0.297557
0.301858
0.305452
0.308308
0.310615
0.312526
0.314132
0.3155
0.31668
0.31771
0.31861
0.319391
0.320065
0.320641
0.321133
0.321546
0.321893
0.322178
0.322407
0.322585
0.322724
0.322832
0.322916
0.32298
0.323032
0.323072
0.323111
0.323141
0.323173
0.323201
0.323234
0.323265
0.323286
0.323469
0.323198
0.0968026
0.115522
0.106957
0.0950291
0.0936172
0.0968692
0.104923
0.113673
0.121309
0.127774
0.133672
0.139187
0.144519
0.149735
0.154999
0.16025
0.165533
0.170842
0.175932
0.180509
0.18428
0.187177
0.189479
0.191153
0.192502
0.193529
0.194217
0.195255
0.196659
0.19844
0.200989
0.203588
0.205475
0.206988
0.208134
0.208899
0.210048
0.21159
0.213526
0.216266
0.219007
0.220976
0.222538
0.223713
0.224491
0.22566
0.227214
0.229155
0.231076
0.232605
0.234488
0.236361
0.237833
0.23893
0.239656
0.240736
0.242167
0.243938
0.246386
0.248768
0.250457
0.251777
0.252762
0.253413
0.254383
0.255669
0.257257
0.259459
0.261605
0.263131
0.264322
0.265214
0.265803
0.266682
0.267846
0.269289
0.271285
0.274092
0.277939
0.282653
0.287703
0.292649
0.297336
0.301592
0.305165
0.308023
0.310348
0.312282
0.313922
0.315328
0.316546
0.317613
0.318546
0.319356
0.320057
0.320654
0.321161
0.321588
0.321941
0.322228
0.322457
0.322634
0.322768
0.32287
0.322948
0.323007
0.323054
0.323091
0.323125
0.323155
0.323187
0.323213
0.323246
0.323277
0.323298
0.323481
0.323209
0.0968053
0.115513
0.10694
0.0949959
0.0935681
0.0968132
0.104854
0.113593
0.121224
0.127693
0.133606
0.139142
0.144507
0.149769
0.155096
0.160429
0.16581
0.171232
0.176443
0.181134
0.184997
0.187963
0.190318
0.192027
0.193404
0.194452
0.195153
0.19621
0.19764
0.199452
0.20204
0.204675
0.206585
0.208116
0.209274
0.210045
0.211204
0.212758
0.214709
0.217465
0.220217
0.222191
0.223755
0.224929
0.225707
0.226873
0.228423
0.230357
0.232267
0.233786
0.235654
0.237511
0.238968
0.240052
0.240769
0.241835
0.243246
0.244991
0.247401
0.24974
0.251395
0.252686
0.253648
0.254283
0.255229
0.256482
0.258029
0.260172
0.26226
0.263743
0.264899
0.265762
0.266332
0.267182
0.268306
0.269701
0.271631
0.27435
0.278079
0.282651
0.287552
0.292365
0.296951
0.301146
0.304696
0.307564
0.309921
0.311906
0.313601
0.315064
0.316342
0.317465
0.318451
0.319309
0.320047
0.320678
0.32121
0.321654
0.322014
0.322301
0.322524
0.322693
0.322815
0.322905
0.322972
0.323019
0.323057
0.323088
0.323117
0.323142
0.32317
0.323195
0.323229
0.32326
0.323282
0.323469
0.3232
0.0968095
0.115498
0.106912
0.094943
0.0934884
0.0967218
0.104739
0.113457
0.121075
0.127543
0.133467
0.139025
0.14443
0.14975
0.155158
0.160604
0.166125
0.171715
0.177109
0.181973
0.185981
0.189055
0.191492
0.193258
0.19468
0.195759
0.196483
0.197571
0.199041
0.200901
0.203553
0.206242
0.208188
0.209746
0.210923
0.211706
0.212882
0.214457
0.216431
0.219212
0.221979
0.223959
0.225524
0.226697
0.227475
0.22864
0.230186
0.232111
0.234006
0.235511
0.237357
0.239187
0.240621
0.241687
0.242391
0.243439
0.244823
0.246531
0.248881
0.251152
0.252755
0.254004
0.254934
0.255549
0.256464
0.257675
0.259167
0.261225
0.263221
0.264637
0.26574
0.266565
0.26711
0.267923
0.268999
0.270333
0.272173
0.27476
0.278304
0.28265
0.287319
0.291931
0.296366
0.300473
0.303997
0.306888
0.309296
0.31135
0.313127
0.31468
0.316044
0.317248
0.318306
0.319228
0.320023
0.320697
0.321263
0.321728
0.3221
0.322392
0.32261
0.322769
0.322881
0.322958
0.32301
0.323045
0.323073
0.323094
0.323116
0.323134
0.323161
0.323184
0.323216
0.323247
0.32327
0.323457
0.32319
0.0968163
0.115475
0.106869
0.0948623
0.0933658
0.0965798
0.104558
0.113239
0.120828
0.127281
0.133206
0.138778
0.144221
0.149603
0.155111
0.160698
0.16641
0.172236
0.177894
0.183021
0.187251
0.190495
0.193059
0.194916
0.196408
0.19754
0.198297
0.199435
0.200969
0.202906
0.205658
0.208439
0.210444
0.212046
0.213252
0.214055
0.215258
0.216865
0.218876
0.221699
0.224495
0.226489
0.22806
0.229235
0.230012
0.231173
0.232711
0.234621
0.236496
0.237981
0.239798
0.241595
0.242997
0.244036
0.244722
0.245738
0.247078
0.248729
0.250998
0.253178
0.25471
0.255896
0.256775
0.257353
0.258212
0.259347
0.260744
0.262675
0.264541
0.26586
0.266879
0.267639
0.268139
0.268883
0.269867
0.271088
0.272782
0.275172
0.278461
0.282504
0.286868
0.291229
0.295492
0.29952
0.303045
0.305989
0.308478
0.310628
0.312507
0.314165
0.315639
0.316948
0.318104
0.31911
0.319981
0.320717
0.321328
0.32182
0.322203
0.322492
0.322699
0.322838
0.322926
0.32298
0.323008
0.323024
0.323036
0.323047
0.323062
0.323079
0.323102
0.323124
0.32316
0.323194
0.323221
0.323412
0.323149
0.0968265
0.115443
0.106807
0.0947445
0.0931849
0.0963682
0.104287
0.112906
0.120439
0.126853
0.132756
0.138321
0.143786
0.149221
0.154834
0.160592
0.166542
0.172694
0.178728
0.184243
0.188812
0.192317
0.195083
0.19708
0.198682
0.199893
0.200703
0.20192
0.203553
0.205612
0.20852
0.211439
0.213535
0.215202
0.216453
0.217284
0.218527
0.220183
0.222246
0.225126
0.227956
0.229963
0.231537
0.23271
0.233485
0.234642
0.236167
0.238055
0.239897
0.241353
0.243125
0.244867
0.246222
0.247222
0.247881
0.248859
0.250145
0.251722
0.25387
0.255909
0.257335
0.258436
0.259253
0.259792
0.260593
0.261647
0.262938
0.264698
0.266373
0.267554
0.268468
0.269153
0.269605
0.270281
0.271173
0.272275
0.273783
0.275898
0.278782
0.282344
0.286235
0.290203
0.294218
0.298151
0.301692
0.30473
0.307354
0.309653
0.311691
0.313503
0.315116
0.316552
0.317829
0.318948
0.319909
0.320715
0.321373
0.321896
0.322296
0.322585
0.322779
0.3229
0.322963
0.322987
0.322988
0.322984
0.322976
0.322976
0.322982
0.322996
0.323017
0.323042
0.323079
0.323116
0.323148
0.323344
0.323086
0.0968399
0.115398
0.106722
0.0945796
0.0929292
0.0960673
0.103895
0.112419
0.119856
0.126187
0.132027
0.13754
0.142987
0.148443
0.154142
0.160077
0.16632
0.172887
0.179461
0.185557
0.190654
0.194578
0.197669
0.199898
0.201681
0.203025
0.203923
0.205267
0.207066
0.20932
0.212478
0.215621
0.217861
0.219632
0.220953
0.221829
0.223133
0.22486
0.227002
0.229967
0.232852
0.234879
0.23646
0.237631
0.238403
0.239549
0.241055
0.242914
0.244718
0.246137
0.247853
0.249536
0.250835
0.251789
0.252414
0.253335
0.254539
0.25601
0.258011
0.259891
0.261187
0.262166
0.262878
0.263344
0.264024
0.264912
0.265994
0.267479
0.26888
0.26985
0.270576
0.271107
0.271453
0.271961
0.272631
0.273468
0.274644
0.276332
0.278677
0.281617
0.284926
0.288521
0.292378
0.296332
0.29998
0.303187
0.305981
0.308426
0.310582
0.312519
0.314278
0.315879
0.317325
0.318602
0.319699
0.320613
0.321349
0.321921
0.32234
0.322624
0.322793
0.322871
0.322888
0.322872
0.322836
0.322802
0.322778
0.322768
0.322771
0.322785
0.322814
0.322846
0.322894
0.322939
0.322984
0.323194
0.32295
0.0968589
0.115338
0.106605
0.0943607
0.0925808
0.0956551
0.103356
0.111732
0.119019
0.125205
0.130905
0.136291
0.141641
0.147038
0.152751
0.158827
0.165381
0.17248
0.179772
0.186744
0.192685
0.197274
0.200902
0.203517
0.205602
0.207168
0.208212
0.209773
0.211846
0.214428
0.218
0.221493
0.223952
0.225873
0.227293
0.22823
0.229617
0.231439
0.23368
0.236735
0.239651
0.241672
0.243229
0.244373
0.245125
0.246236
0.247691
0.249473
0.251185
0.252522
0.254123
0.255675
0.256861
0.257726
0.258293
0.259129
0.260217
0.261538
0.263294
0.264896
0.265995
0.266833
0.267454
0.267864
0.268477
0.269272
0.270228
0.271461
0.272541
0.273278
0.27383
0.27424
0.274511
0.274916
0.275433
0.276045
0.276832
0.277878
0.279249
0.281055
0.28331
0.286135
0.28966
0.293601
0.297479
0.301009
0.304101
0.306779
0.309081
0.311159
0.313128
0.314974
0.316645
0.318107
0.319346
0.320367
0.321179
0.321801
0.322245
0.322526
0.32267
0.322708
0.322684
0.322614
0.322542
0.322481
0.322443
0.322431
0.322438
0.322463
0.322507
0.322554
0.322624
0.322686
0.322748
0.322977
0.322762
0.0968808
0.115264
0.106466
0.0940845
0.0921451
0.0951362
0.102664
0.110851
0.117912
0.12387
0.12933
0.134472
0.139579
0.14477
0.150335
0.156411
0.163201
0.170855
0.179075
0.187255
0.194418
0.200158
0.204681
0.207936
0.210528
0.212465
0.213753
0.21567
0.218201
0.221329
0.225597
0.229672
0.232505
0.234682
0.23626
0.23729
0.238798
0.240728
0.243049
0.246081
0.2489
0.25084
0.25233
0.253429
0.254152
0.255228
0.256642
0.258381
0.260059
0.261365
0.26292
0.264426
0.265571
0.266399
0.266936
0.267719
0.268733
0.269953
0.271585
0.27305
0.274016
0.274699
0.275152
0.275434
0.275812
0.276252
0.276731
0.277327
0.277773
0.277992
0.278074
0.278107
0.278112
0.278106
0.278083
0.278082
0.278124
0.278217
0.278281
0.27859
0.279724
0.282279
0.286032
0.290416
0.294834
0.298727
0.301846
0.304483
0.306833
0.309029
0.311227
0.313366
0.31533
0.317045
0.318497
0.319688
0.320634
0.321346
0.321837
0.322123
0.322237
0.322233
0.322146
0.322024
0.321919
0.321844
0.321814
0.321821
0.321864
0.321925
0.322019
0.322103
0.322216
0.322311
0.322415
0.322687
0.322527
0.0969064
0.115185
0.106304
0.0937844
0.0916508
0.0945447
0.101874
0.109825
0.116591
0.122263
0.127345
0.132127
0.136781
0.14157
0.146689
0.152472
0.159214
0.16713
0.176156
0.185729
0.194567
0.201686
0.207548
0.211858
0.215331
0.217946
0.219684
0.222287
0.225689
0.229861
0.23534
0.240242
0.243429
0.245733
0.247321
0.248339
0.249781
0.251577
0.253668
0.256311
0.258619
0.260131
0.26125
0.262072
0.262613
0.263422
0.26452
0.2659
0.267233
0.268282
0.269512
0.270668
0.271502
0.272094
0.272478
0.273044
0.273759
0.274607
0.275729
0.27679
0.2776
0.278309
0.278907
0.279327
0.280013
0.280961
0.282182
0.283671
0.284782
0.285418
0.285761
0.285932
0.286011
0.28602
0.285874
0.285419
0.28445
0.282776
0.280437
0.277671
0.276311
0.277283
0.280739
0.28592
0.291194
0.29556
0.298658
0.301258
0.303706
0.306079
0.308538
0.311013
0.31331
0.315301
0.316974
0.318362
0.319488
0.320349
0.320953
0.321309
0.321449
0.321435
0.321316
0.321169
0.321065
0.321017
0.321031
0.321099
0.321223
0.321351
0.32152
0.321661
0.321849
0.321998
0.322163
0.322498
0.322422
0.0969337
0.1151
0.106134
0.0934777
0.091118
0.0939208
0.101016
0.108725
0.115131
0.120463
0.125032
0.129355
0.13332
0.137398
0.141742
0.146687
0.152719
0.160212
0.16954
0.180278
0.19114
0.20048
0.208704
0.214631
0.219422
0.222927
0.225193
0.22847
0.232402
0.236861
0.241378
0.244237
0.24563
0.246356
0.246779
0.247006
0.247355
0.247715
0.248212
0.248991
0.249694
0.250114
0.250437
0.250677
0.25083
0.251041
0.251361
0.251756
0.252072
0.252103
0.251862
0.251277
0.250629
0.250179
0.24986
0.249531
0.249426
0.249741
0.251549
0.254337
0.256648
0.258511
0.259763
0.260542
0.2615
0.262676
0.263961
0.265927
0.268333
0.270117
0.27147
0.272414
0.272979
0.2738
0.274837
0.275891
0.276526
0.276135
0.273724
0.269669
0.267864
0.269604
0.274827
0.281618
0.287756
0.292084
0.294678
0.296608
0.298966
0.301473
0.304131
0.307017
0.309783
0.312224
0.314288
0.316048
0.31752
0.318669
0.319489
0.320001
0.320254
0.320288
0.320211
0.320093
0.32004
0.320062
0.320185
0.320373
0.320621
0.320856
0.321133
0.321368
0.32165
0.321867
0.322122
0.322514
0.322535
0.0969582
0.11502
0.105968
0.0931786
0.0905756
0.0933067
0.100126
0.107644
0.113616
0.118564
0.12259
0.126271
0.129422
0.132452
0.135603
0.138986
0.143283
0.14907
0.157327
0.168299
0.181538
0.192777
0.202982
0.210739
0.21594
0.219341
0.221374
0.22424
0.227196
0.23121
0.231589
0.23003
0.227467
0.224525
0.222144
0.220506
0.218051
0.214786
0.211321
0.20696
0.20447
0.203769
0.204165
0.20491
0.205766
0.20742
0.210352
0.214365
0.218069
0.220668
0.222901
0.224221
0.224545
0.224465
0.224426
0.224162
0.223963
0.223626
0.224024
0.226987
0.232167
0.23816
0.243738
0.247724
0.254426
0.264169
0.277514
0.292124
0.300656
0.303641
0.304162
0.304015
0.303303
0.301528
0.29902
0.296119
0.292114
0.283993
0.271051
0.257428
0.251445
0.253959
0.263181
0.27373
0.281705
0.285969
0.287485
0.288299
0.290194
0.293168
0.296545
0.300331
0.304185
0.307538
0.310311
0.31263
0.314585
0.316168
0.317366
0.318217
0.318753
0.318968
0.318992
0.318949
0.318968
0.319093
0.319359
0.319682
0.320075
0.320443
0.320846
0.321182
0.321567
0.321859
0.322205
0.322634
0.322767
0.0969795
0.114954
0.105833
0.0928995
0.0901031
0.0927469
0.0993385
0.106662
0.112206
0.116843
0.120287
0.123299
0.125634
0.127447
0.129051
0.13039
0.131876
0.134417
0.139679
0.150614
0.164188
0.18083
0.199303
0.218343
0.235705
0.253293
0.268052
0.293789
0.334529
0.376076
0.394484
0.389821
0.380063
0.366841
0.35633
0.349312
0.338944
0.325516
0.309808
0.283092
0.260867
0.24759
0.243622
0.24406
0.245212
0.249154
0.258352
0.272724
0.286253
0.295706
0.30348
0.307111
0.307876
0.307528
0.306971
0.305692
0.303415
0.299254
0.297438
0.30027
0.305944
0.306631
0.305235
0.301685
0.287635
0.265345
0.249264
0.248642
0.255546
0.265138
0.271516
0.275624
0.278098
0.281401
0.285074
0.288615
0.289436
0.285923
0.269828
0.247503
0.235004
0.237471
0.248944
0.261781
0.270728
0.274877
0.275431
0.275174
0.276108
0.279216
0.283367
0.28812
0.293219
0.29773
0.301459
0.304679
0.307575
0.310139
0.312342
0.31416
0.315538
0.316388
0.316846
0.317088
0.317352
0.317693
0.318165
0.318684
0.319256
0.319774
0.320312
0.320753
0.321241
0.321598
0.322029
0.322486
0.322718
0.096995
0.114905
0.105757
0.0926488
0.0897605
0.0922927
0.0987654
0.105832
0.111151
0.115401
0.118505
0.120861
0.122451
0.123395
0.123222
0.122672
0.121134
0.11932
0.120918
0.129679
0.152188
0.198458
0.294261
0.381598
0.447937
0.494574
0.521813
0.564812
0.603613
0.628178
0.614594
0.579992
0.543427
0.513333
0.492022
0.478409
0.460127
0.43697
0.409796
0.358162
0.306634
0.278704
0.265519
0.265793
0.267543
0.274497
0.293314
0.329174
0.360912
0.382882
0.400088
0.400614
0.395332
0.386469
0.378119
0.36584
0.346482
0.306216
0.230662
0.142716
0.112768
0.108592
0.106496
0.103209
0.0944475
0.0853906
0.0823812
0.0859527
0.0964754
0.106994
0.116482
0.124084
0.129217
0.137465
0.149303
0.165477
0.186431
0.209548
0.219271
0.21414
0.214593
0.225673
0.243044
0.256715
0.263509
0.264304
0.262187
0.258292
0.256219
0.256764
0.260107
0.264995
0.27054
0.276659
0.282912
0.289047
0.294864
0.30017
0.304833
0.308719
0.311642
0.313526
0.314626
0.31525
0.315759
0.316289
0.316934
0.317606
0.318319
0.318952
0.319585
0.320093
0.320645
0.321039
0.321524
0.321987
0.322275
0.0970037
0.114881
0.105707
0.0924776
0.0895084
0.091977
0.0983681
0.105238
0.110431
0.114359
0.117219
0.119179
0.120121
0.120266
0.119256
0.11693
0.112911
0.106694
0.104367
0.115715
0.173182
0.327658
0.45562
0.514907
0.547151
0.567821
0.581769
0.606545
0.611861
0.598809
0.561039
0.513575
0.474282
0.43977
0.41571
0.39844
0.376212
0.344964
0.293741
0.223178
0.163886
0.166683
0.179815
0.199601
0.221043
0.248912
0.309846
0.357986
0.43148
0.453255
0.435216
0.384286
0.328825
0.28945
0.2589
0.218658
0.17273
0.128595
0.0984789
0.109452
0.143008
0.161487
0.16011
0.155908
0.153996
0.153791
0.154548
0.155039
0.153661
0.151741
0.149469
0.147304
0.145941
0.14397
0.142411
0.14038
0.141183
0.155494
0.176832
0.190578
0.203682
0.221142
0.237393
0.250379
0.255568
0.25442
0.250446
0.244693
0.240277
0.237944
0.237532
0.238989
0.243229
0.250268
0.260196
0.27177
0.282696
0.292235
0.300081
0.306033
0.310062
0.312419
0.313613
0.314175
0.314626
0.31515
0.315841
0.316586
0.317377
0.31807
0.318755
0.319291
0.31987
0.320269
0.320781
0.321238
0.321554
0.0970062
0.114878
0.105662
0.092372
0.0893243
0.0917643
0.0981074
0.104825
0.109941
0.113666
0.116279
0.118078
0.118466
0.118138
0.116498
0.112929
0.107027
0.0980101
0.0915159
0.112638
0.238281
0.391302
0.469462
0.43412
0.383109
0.3892
0.413524
0.418964
0.407456
0.381486
0.365464
0.330104
0.289887
0.261973
0.240575
0.226641
0.201895
0.154509
0.121079
0.100591
0.100538
0.124737
0.164584
0.188616
0.214724
0.248479
0.304184
0.397034
0.419519
0.404532
0.324892
0.188929
0.119629
0.0966532
0.0934033
0.101528
0.11772
0.136614
0.191724
0.312921
0.349881
0.350231
0.309391
0.274963
0.23415
0.214915
0.214151
0.218976
0.225288
0.229675
0.232988
0.235597
0.237666
0.239566
0.239093
0.235584
0.219499
0.191319
0.186775
0.187374
0.197448
0.213
0.225362
0.237687
0.242217
0.242521
0.24265
0.241588
0.238626
0.235124
0.231937
0.230715
0.232817
0.240214
0.252273
0.266689
0.280185
0.291568
0.300472
0.306761
0.310567
0.312411
0.31309
0.313293
0.313571
0.314049
0.314778
0.315583
0.316435
0.317166
0.31788
0.318425
0.319022
0.319422
0.319956
0.3204
0.320745
0.0970096
0.114876
0.105625
0.0922919
0.0891998
0.0916196
0.0979323
0.10454
0.109579
0.113212
0.115591
0.117308
0.117303
0.116687
0.114541
0.110108
0.102959
0.0918532
0.0828716
0.120973
0.27325
0.392022
0.356587
0.309996
0.307493
0.332443
0.368439
0.361313
0.331781
0.306129
0.254666
0.176367
0.135991
0.108369
0.0900135
0.0805791
0.0757475
0.0648616
0.055292
0.102947
0.129165
0.106288
0.131586
0.183339
0.235039
0.259766
0.324826
0.346674
0.305992
0.206845
0.111999
0.0846741
0.0799334
0.0837039
0.0905551
0.105905
0.139543
0.212198
0.353796
0.418885
0.406738
0.391589
0.341012
0.300114
0.245766
0.221358
0.222824
0.229023
0.235828
0.242093
0.248599
0.255101
0.26017
0.267357
0.276535
0.286607
0.282106
0.247856
0.203932
0.188355
0.191938
0.201686
0.212446
0.225775
0.232243
0.238252
0.245387
0.24836
0.247269
0.243019
0.238201
0.235583
0.237257
0.244963
0.257726
0.272446
0.28535
0.295693
0.303502
0.308671
0.31139
0.312313
0.312378
0.312282
0.312416
0.312922
0.313733
0.314608
0.315512
0.316274
0.317009
0.317565
0.318175
0.318579
0.319137
0.319569
0.319947
0.0970153
0.114872
0.105591
0.0922193
0.0891065
0.0915085
0.097793
0.104322
0.10928
0.11286
0.115059
0.116646
0.116459
0.115538
0.112981
0.107891
0.0998105
0.0870681
0.0767992
0.127972
0.282054
0.358694
0.313018
0.26647
0.247942
0.310155
0.332805
0.268325
0.203174
0.127987
0.0659389
0.0504799
0.052635
0.0468335
0.0474172
0.0534082
0.060244
0.0470366
0.0730986
0.113774
0.106432
0.18838
0.270087
0.345987
0.342377
0.307521
0.282285
0.172888
0.103879
0.100007
0.0877412
0.0821805
0.0817898
0.085427
0.0924714
0.12585
0.200519
0.34828
0.449781
0.434994
0.405948
0.390004
0.325226
0.281788
0.196883
0.156651
0.140823
0.142343
0.151478
0.163481
0.180675
0.197985
0.216255
0.240618
0.262368
0.291749
0.311163
0.29092
0.229075
0.191159
0.184212
0.190435
0.20281
0.218937
0.229448
0.242079
0.253457
0.258344
0.258071
0.254093
0.249431
0.246947
0.248921
0.256832
0.268915
0.282359
0.293201
0.301124
0.306802
0.310223
0.311626
0.311711
0.311342
0.311054
0.311183
0.311775
0.312692
0.313643
0.314599
0.315386
0.31614
0.316706
0.317334
0.317745
0.318329
0.318751
0.319167
0.0970229
0.11485
0.10555
0.0921605
0.0890345
0.0914199
0.0976791
0.10416
0.109054
0.112593
0.114675
0.116133
0.115845
0.114703
0.11182
0.106278
0.0975435
0.0836177
0.0730243
0.133418
0.283168
0.337531
0.258231
0.219268
0.207317
0.292505
0.298318
0.173364
0.0962298
0.0397117
0.0240357
0.0269493
0.0232206
0.020518
0.0294387
0.048855
0.0574408
0.0481469
0.0991926
0.131078
0.15275
0.320775
0.317858
0.359767
0.318786
0.132598
0.070441
0.0866681
0.0821274
0.0781091
0.0700619
0.065502
0.065676
0.068111
0.0640203
0.130055
0.262101
0.421764
0.498105
0.413194
0.377886
0.359221
0.24519
0.223977
0.107469
0.0668997
0.0594614
0.0585189
0.0640224
0.0738665
0.092403
0.109232
0.136947
0.195995
0.23598
0.284584
0.324196
0.312903
0.247213
0.193191
0.177032
0.182112
0.197777
0.216052
0.230423
0.24581
0.258101
0.26417
0.264731
0.261757
0.258022
0.256287
0.258599
0.266433
0.27771
0.289988
0.299216
0.305245
0.308964
0.310716
0.311038
0.31059
0.309958
0.309704
0.309949
0.310704
0.311732
0.312756
0.313755
0.314566
0.315336
0.315914
0.31656
0.316981
0.317591
0.318006
0.318461
0.097024
0.114845
0.105541
0.0921375
0.0889886
0.0913598
0.0975988
0.104054
0.108906
0.112416
0.114425
0.115792
0.115436
0.114156
0.111057
0.105242
0.0960864
0.0814375
0.070904
0.136069
0.277956
0.321785
0.240975
0.203681
0.18929
0.237081
0.0509949
0.0565665
0.0566941
0.122377
0.152952
0.246499
0.343795
0.315154
0.342078
0.0492016
0.112871
0.28745
0.44899
0.508561
0.396876
0.358035
0.331037
0.177692
0.103877
0.13802
0.205806
0.27224
0.333161
0.327042
0.258668
0.193629
0.171938
0.176762
0.195369
0.214218
0.230412
0.246595
0.259201
0.266466
0.268314
0.266579
0.263486
0.262053
0.2643
0.271701
0.282263
0.293917
0.302492
0.307376
0.309828
0.310564
0.310315
0.309473
0.308813
0.308641
0.309016
0.309911
0.311027
0.312105
0.313134
0.313959
0.314743
0.315331
0.315992
0.31642
0.31705
0.317466
0.31794
0.0970224
0.114848
0.105546
0.092117
0.0889199
0.0912688
0.0974765
0.103899
0.10869
0.112152
0.114059
0.115286
0.114831
0.11335
0.109936
0.103729
0.0939688
0.0783097
0.0678644
0.137936
0.270497
0.299263
0.202703
0.170622
0.160494
0.187023
0.0474913
0.0552016
0.0690706
0.135049
0.155386
0.3058
0.353784
0.313574
0.317275
0.0507293
0.117198
0.331036
0.478733
0.511181
0.372823
0.328146
0.285743
0.134311
0.0452115
0.0597207
0.106253
0.222526
0.324969
0.342509
0.27285
0.191907
0.162585
0.169638
0.192025
0.210023
0.228198
0.245511
0.259469
0.268681
0.272888
0.273266
0.271588
0.27026
0.271893
0.278138
0.287292
0.297512
0.305169
0.309025
0.310048
0.309675
0.308524
0.307367
0.30677
0.3068
0.307477
0.308599
0.309867
0.31103
0.312108
0.312959
0.313765
0.314371
0.315058
0.315506
0.316162
0.316592
0.317083
0.0970246
0.114829
0.105523
0.0920772
0.0888221
0.0911445
0.0973115
0.103695
0.108409
0.111798
0.113585
0.114626
0.11404
0.112305
0.108487
0.101801
0.0913122
0.0745426
0.0641543
0.138546
0.258557
0.276703
0.178709
0.147107
0.13565
0.136556
0.0520901
0.0613298
0.0601772
0.118822
0.159312
0.323573
0.35114
0.299446
0.302615
0.087416
0.163027
0.396259
0.509738
0.498963
0.332456
0.283959
0.225479
0.10822
0.0453151
0.04847
0.0592853
0.0998003
0.260212
0.328059
0.269861
0.181293
0.15063
0.164464
0.184905
0.201078
0.221006
0.24111
0.258408
0.270107
0.277496
0.281006
0.281421
0.280296
0.280534
0.283814
0.290586
0.299281
0.305419
0.307602
0.307367
0.305889
0.304281
0.303308
0.303175
0.303746
0.30506
0.306537
0.308033
0.309319
0.310464
0.311356
0.312204
0.312848
0.313581
0.314063
0.314768
0.31522
0.315752
0.0970294
0.114807
0.10549
0.0920241
0.0887076
0.0910013
0.0971162
0.103446
0.108072
0.11136
0.113021
0.11383
0.113085
0.111054
0.106773
0.0995719
0.0883424
0.0705949
0.0594656
0.133335
0.241767
0.252861
0.152876
0.120225
0.105033
0.101435
0.052833
0.0670815
0.0658649
0.0610035
0.177238
0.29815
0.314418
0.277609
0.298156
0.102328
0.211953
0.454688
0.540725
0.443581
0.285116
0.240803
0.207994
0.120505
0.0561744
0.0631917
0.063715
0.0702395
0.0973842
0.219818
0.21808
0.139886
0.134843
0.1518
0.166236
0.183626
0.210527
0.23877
0.258876
0.273284
0.283151
0.289363
0.291224
0.289679
0.287393
0.287418
0.290845
0.296591
0.300023
0.300698
0.299816
0.298122
0.297081
0.29698
0.297772
0.299478
0.301549
0.303521
0.305321
0.306771
0.308017
0.308979
0.309904
0.310617
0.311429
0.31197
0.312752
0.313234
0.313839
0.0970362
0.11478
0.105443
0.091944
0.0885609
0.0908202
0.0968666
0.103113
0.107635
0.110765
0.112281
0.112775
0.111819
0.109413
0.104564
0.09676
0.084816
0.066229
0.0532185
0.121183
0.225886
0.237747
0.13971
0.107753
0.0894491
0.0800811
0.0380597
0.0577488
0.058415
0.101946
0.247132
0.233286
0.255861
0.230616
0.265085
0.102833
0.211338
0.450047
0.526275
0.393659
0.263698
0.225991
0.215769
0.151875
0.054233
0.0589131
0.0491888
0.116377
0.144288
0.144469
0.139157
0.117458
0.105803
0.111294
0.125071
0.156253
0.20122
0.240789
0.267231
0.282343
0.292188
0.29695
0.297495
0.295083
0.290609
0.287824
0.287448
0.287013
0.286006
0.284864
0.284192
0.284226
0.285203
0.287203
0.289879
0.292814
0.295735
0.298305
0.300512
0.302242
0.30371
0.304855
0.305954
0.306817
0.307779
0.308432
0.309359
0.309887
0.31065
0.0970433
0.114762
0.105407
0.0918517
0.088429
0.0906582
0.0966483
0.1028
0.107237
0.110203
0.111598
0.111792
0.11065
0.107901
0.102587
0.09431
0.0820442
0.0634526
0.0473332
0.100099
0.212987
0.23665
0.147575
0.112384
0.0946264
0.0865002
0.027252
0.0382183
0.0849675
0.26819
0.331797
0.182001
0.18941
0.187443
0.218768
0.0895345
0.166024
0.418492
0.505395
0.398579
0.276029
0.245544
0.24339
0.197064
0.0589402
0.0590703
0.0540416
0.126358
0.183607
0.203827
0.15632
0.11563
0.0924001
0.0764545
0.0966666
0.145968
0.206597
0.256807
0.286272
0.298216
0.300278
0.299723
0.296137
0.289078
0.282577
0.278336
0.274742
0.27023
0.267019
0.266161
0.267378
0.270421
0.27417
0.27803
0.281837
0.285469
0.288907
0.291891
0.294475
0.296546
0.298334
0.299755
0.3011
0.302166
0.303321
0.304116
0.305234
0.30581
0.306797
0.0970498
0.114752
0.105383
0.0917784
0.088346
0.0905553
0.0965089
0.102591
0.106965
0.109829
0.111138
0.111139
0.109873
0.106892
0.101296
0.09277
0.0804086
0.0623786
0.0444028
0.0792431
0.200304
0.239304
0.165094
0.125582
0.110485
0.107287
0.0289352
0.0716632
0.20098
0.344693
0.351843
0.168126
0.12674
0.153217
0.179045
0.100984
0.15871
0.396836
0.491162
0.406637
0.299936
0.283682
0.283546
0.242612
0.0676785
0.0665326
0.0457347
0.0928442
0.140169
0.168361
0.167047
0.107365
0.0788594
0.0633571
0.0928286
0.148253
0.214924
0.270762
0.301428
0.307302
0.302249
0.289271
0.276701
0.266626
0.260555
0.258097
0.256138
0.253765
0.252917
0.254261
0.257857
0.262427
0.267224
0.271675
0.275846
0.279723
0.283398
0.286645
0.289522
0.291879
0.293933
0.295581
0.297128
0.298357
0.299668
0.30058
0.30186
0.302468
0.30366
0.097056
0.114746
0.105357
0.0917187
0.0882818
0.0904816
0.0964022
0.102437
0.10675
0.109553
0.110766
0.110675
0.109274
0.106129
0.100296
0.0916851
0.079202
0.0619002
0.0434655
0.060766
0.181809
0.24273
0.193093
0.151338
0.140284
0.139513
0.0865503
0.177022
0.262876
0.361362
0.327373
0.167805
0.0870658
0.137488
0.160914
0.117982
0.159639
0.377545
0.478054
0.421003
0.324515
0.309986
0.327444
0.291896
0.0751944
0.0772471
0.04946
0.105403
0.133429
0.154648
0.159464
0.10529
0.0753391
0.0621525
0.0935412
0.149536
0.217418
0.274835
0.30593
0.309077
0.294733
0.271258
0.252816
0.241518
0.237454
0.237531
0.239145
0.24084
0.243389
0.247219
0.251972
0.25702
0.261917
0.266459
0.270748
0.274752
0.278609
0.282082
0.285214
0.287813
0.290094
0.291931
0.293651
0.295022
0.296471
0.297489
0.29891
0.299556
0.300925
0.0970626
0.114726
0.105318
0.0916734
0.0882284
0.0904239
0.0963161
0.102329
0.10659
0.109358
0.110489
0.110347
0.108846
0.105576
0.0995805
0.0909201
0.0783752
0.0616704
0.0433907
0.0494868
0.161739
0.242796
0.225349
0.174977
0.161801
0.200585
0.229281
0.251044
0.279085
0.348253
0.291151
0.161193
0.0644551
0.133564
0.167577
0.140589
0.161946
0.362278
0.46667
0.435104
0.344016
0.331661
0.356998
0.319798
0.0822794
0.0805129
0.0626954
0.113803
0.136815
0.152122
0.154521
0.106708
0.0771951
0.0646324
0.0948926
0.14928
0.216177
0.27336
0.301674
0.301104
0.281334
0.254388
0.234397
0.223829
0.221549
0.22376
0.228709
0.233591
0.238394
0.243354
0.248384
0.253266
0.257934
0.262362
0.266677
0.270789
0.274798
0.278449
0.281773
0.284551
0.287
0.28898
0.290831
0.292312
0.293872
0.294976
0.296514
0.297196
0.298711
0.0970632
0.114723
0.105309
0.0916601
0.0881944
0.0903841
0.0962559
0.102259
0.106487
0.109232
0.110308
0.110132
0.10857
0.105217
0.0991347
0.0904208
0.0778787
0.0615045
0.0438259
0.0423278
0.146745
0.241166
0.242787
0.201042
0.186026
0.224086
0.272857
0.149275
0.118764
0.113529
0.111124
0.115186
0.132275
0.176863
0.213989
0.268608
0.259813
0.278723
0.326989
0.273042
0.160689
0.0582203
0.110448
0.151785
0.133729
0.122581
0.123975
0.105957
0.0455321
0.0106795
0.00787893
0.00977802
0.0169951
0.0616946
0.14249
0.162177
0.352173
0.455539
0.446921
0.356021
0.343693
0.386494
0.360113
0.220549
0.0575588
0.0563003
0.0798334
0.0881617
0.0559138
0.0443651
0.0404092
0.0483465
0.0869753
0.0792291
0.073093
0.116214
0.13976
0.154849
0.153067
0.109212
0.0806109
0.0673283
0.0949617
0.14663
0.210713
0.264677
0.29007
0.288184
0.267614
0.241679
0.223193
0.214492
0.213415
0.216968
0.223553
0.229961
0.235786
0.241163
0.246155
0.250798