/*--------------------------------*- C++ -*----------------------------------*\
| =========                 |                                                 |
| \\      /  F ield         | OpenFOAM: The Open Source CFD Toolbox           |
|  \\    /   O peration     | Version:  v2006                                 |
|   \\  /    A nd           | Website:  www.openfoam.com                      |
|    \\/     M anipulation  |                                                 |
\*---------------------------------------------------------------------------*/
FoamFile
{
    version     2.0;
    format      ascii;
    class       volScalarField;
    location    "0.54";
    object      omega;
}
// * * * * * * * * * * * * * * * * * * * * * * * * * * * * * * * * * * * * * //

dimensions      [0 0 -1 0 0 0 0];


internalField   nonuniform List<scalar> 
374400
(
281.48
306.712
295.427
278.991
277.018
281.65
292.791
304.408
314.184
322.22
329.374
335.92
342.118
348.066
353.951
359.708
365.395
371.009
376.308
381.007
384.838
387.759
390.069
391.741
393.086
394.107
394.791
395.818
397.206
398.96
401.462
403.999
405.833
407.3
408.408
409.146
410.252
411.733
413.588
416.201
418.804
420.666
422.138
423.242
423.973
425.068
426.521
428.331
430.117
431.534
433.275
435.002
436.355
437.361
438.026
439.015
440.323
441.935
444.16
446.317
447.842
449.031
449.917
450.502
451.373
452.525
453.945
455.908
457.815
459.168
460.223
461.01
461.529
462.304
463.326
464.592
466.337
468.78
472.107
476.149
480.432
484.576
488.45
491.918
494.788
497.051
498.869
500.364
501.616
502.678
503.589
504.381
505.071
505.671
506.188
506.629
507.003
507.321
507.586
507.806
507.984
508.123
508.232
508.317
508.382
508.433
508.474
508.507
508.535
508.56
508.586
508.606
508.632
508.656
508.672
508.814
508.602
281.482
306.71
295.422
278.981
277.002
281.631
292.766
304.38
314.158
322.197
329.359
335.913
342.125
348.089
353.994
359.777
365.493
371.139
376.471
381.2
385.053
387.993
390.315
391.996
393.347
394.372
395.059
396.09
397.484
399.246
401.756
404.3
406.138
407.608
408.719
409.458
410.566
412.05
413.906
416.521
419.125
420.987
422.458
423.562
424.293
425.386
426.837
428.644
430.425
431.839
433.576
435.298
436.647
437.65
438.313
439.297
440.6
442.206
444.42
446.567
448.083
449.266
450.146
450.728
451.593
452.737
454.148
456.097
457.992
459.335
460.381
461.163
461.678
462.446
463.459
464.715
466.446
468.871
472.175
476.186
480.441
484.56
488.415
491.872
494.739
497.005
498.828
500.335
501.599
502.672
503.597
504.404
505.107
505.717
506.242
506.691
507.073
507.395
507.665
507.885
508.063
508.201
508.309
508.392
508.457
508.507
508.547
508.578
508.608
508.632
508.656
508.679
508.704
508.728
508.745
508.888
508.676
281.484
306.701
295.407
278.953
276.962
281.587
292.714
304.323
314.101
322.149
329.325
335.9
342.139
348.138
354.09
359.929
365.709
371.428
376.831
381.627
385.534
388.511
390.861
392.56
393.925
394.961
395.654
396.696
398.102
399.878
402.406
404.966
406.814
408.291
409.406
410.148
411.26
412.748
414.61
417.229
419.832
421.693
423.162
424.264
424.993
426.084
427.53
429.33
431.104
432.511
434.236
435.946
437.285
438.28
438.937
439.913
441.203
442.793
444.983
447.104
448.601
449.767
450.635
451.208
452.061
453.188
454.577
456.495
458.357
459.675
460.703
461.47
461.976
462.73
463.726
464.959
466.658
469.037
472.276
476.211
480.386
484.434
488.236
491.657
494.509
496.778
498.616
500.142
501.433
502.537
503.492
504.328
505.057
505.69
506.236
506.701
507.096
507.427
507.702
507.925
508.102
508.239
508.343
508.421
508.482
508.528
508.564
508.593
508.619
508.642
508.667
508.687
508.713
508.737
508.754
508.897
508.685
281.488
306.689
295.383
278.906
276.891
281.508
292.62
304.219
313.994
322.05
329.246
335.847
342.126
348.177
354.199
360.126
366.009
371.845
377.369
382.276
386.271
389.313
391.71
393.442
394.832
395.886
396.591
397.649
399.077
400.879
403.439
406.028
407.895
409.385
410.508
411.254
412.373
413.869
415.739
418.366
420.973
422.833
424.3
425.399
426.125
427.211
428.65
430.439
432.198
433.592
435.3
436.991
438.312
439.293
439.941
440.902
442.171
443.735
445.886
447.964
449.428
450.567
451.413
451.972
452.801
453.898
455.249
457.113
458.922
460.202
461.198
461.94
462.429
463.157
464.119
465.309
466.951
469.254
472.393
476.208
480.261
484.202
487.923
491.297
494.133
496.411
498.277
499.845
501.179
502.329
503.332
504.212
504.983
505.653
506.228
506.72
507.134
507.479
507.759
507.982
508.154
508.284
508.379
508.449
508.501
508.536
508.566
508.59
508.612
508.632
508.654
508.674
508.7
508.724
508.742
508.888
508.677
281.494
306.67
295.346
278.831
276.778
281.379
292.465
304.042
313.805
321.865
329.079
335.709
342.036
348.155
354.269
360.318
366.351
372.36
378.068
383.145
387.28
390.423
392.897
394.68
396.111
397.194
397.917
399.004
400.467
402.31
404.923
407.556
409.45
410.961
412.097
412.853
413.983
415.494
417.378
420.018
422.629
424.487
425.95
427.044
427.767
428.847
430.277
432.051
433.79
435.165
436.847
438.508
439.805
440.766
441.4
442.341
443.582
445.108
447.2
449.211
450.625
451.724
452.541
453.08
453.881
454.938
456.238
458.025
459.75
460.97
461.919
462.627
463.094
463.79
464.709
465.845
467.41
469.599
472.579
476.207
480.067
483.846
487.447
490.754
493.572
495.871
497.78
499.404
500.805
502.027
503.098
504.042
504.87
505.59
506.21
506.736
507.175
507.537
507.826
508.052
508.221
508.343
508.43
508.489
508.529
508.557
508.578
508.594
508.612
508.626
508.647
508.665
508.69
508.715
508.732
508.878
508.67
281.503
306.641
295.288
278.716
276.602
281.18
292.22
303.758
313.493
321.543
328.765
335.418
341.794
347.988
354.217
360.422
366.659
372.914
378.891
384.229
388.579
391.883
394.476
396.343
397.837
398.967
399.721
400.852
402.371
404.281
406.979
409.687
411.629
413.173
414.332
415.102
416.253
417.785
419.694
422.359
424.983
426.844
428.304
429.393
430.111
431.183
432.597
434.348
436.059
437.41
439.057
440.679
441.941
442.874
443.488
444.397
445.593
447.062
449.072
450.995
452.341
453.38
454.149
454.655
455.404
456.391
457.605
459.276
460.885
462.019
462.894
463.544
463.972
464.608
465.446
466.486
467.924
469.944
472.709
476.083
479.694
483.27
486.735
489.984
492.807
495.153
497.128
498.831
500.315
501.621
502.78
503.807
504.712
505.499
506.178
506.752
507.227
507.609
507.906
508.129
508.29
508.397
508.465
508.506
508.528
508.54
508.549
508.558
508.569
508.583
508.601
508.619
508.646
508.673
508.694
508.843
508.638
281.518
306.599
295.205
278.548
276.343
280.881
291.851
303.323
313.001
321.015
328.223
334.877
341.29
347.554
353.907
360.307
366.803
373.401
379.764
385.488
390.169
393.723
396.505
398.502
400.097
401.299
402.101
403.303
404.91
406.927
409.759
412.582
414.596
416.191
417.384
418.175
419.356
420.922
422.866
425.565
428.2
430.059
431.511
432.59
433.301
434.361
435.754
437.472
439.141
440.457
442.051
443.614
444.825
445.717
446.304
447.173
448.314
449.708
451.6
453.389
454.636
455.596
456.307
456.775
457.471
458.384
459.5
461.017
462.456
463.468
464.25
464.834
465.22
465.796
466.555
467.49
468.767
470.553
472.974
475.946
479.167
482.425
485.695
488.875
491.718
494.144
496.232
498.056
499.669
501.099
502.368
503.497
504.497
505.372
506.123
506.75
507.262
507.668
507.978
508.202
508.351
508.444
508.493
508.511
508.512
508.508
508.502
508.502
508.507
508.518
508.534
508.554
508.583
508.612
508.637
508.79
508.589
281.537
306.541
295.09
278.314
275.976
280.457
291.319
302.685
312.263
320.192
327.342
333.952
340.361
346.665
353.132
359.74
366.564
373.607
380.529
386.838
392.037
395.993
399.084
401.297
403.06
404.384
405.265
406.581
408.336
410.524
413.572
416.581
418.714
420.391
421.639
422.463
423.689
425.306
427.303
430.052
432.71
434.569
436.012
437.078
437.779
438.817
440.18
441.854
443.474
444.742
446.273
447.768
448.92
449.763
450.315
451.126
452.184
453.474
455.222
456.859
457.983
458.83
459.445
459.847
460.433
461.198
462.127
463.399
464.596
465.423
466.041
466.492
466.786
467.217
467.785
468.494
469.488
470.911
472.881
475.337
478.081
481.042
484.193
487.398
490.335
492.905
495.134
497.078
498.788
500.32
501.709
502.968
504.103
505.103
505.96
506.672
507.245
507.688
508.013
508.231
508.362
508.421
508.433
508.42
508.392
508.366
508.348
508.34
508.342
508.354
508.376
508.402
508.439
508.475
508.51
508.674
508.483
281.563
306.463
294.934
278.002
275.476
279.874
290.584
301.784
311.199
318.975
325.981
332.467
338.791
345.055
351.567
358.361
365.548
373.177
380.854
388.055
394.087
398.686
402.285
404.859
406.9
408.427
409.442
410.954
412.954
415.431
418.834
422.135
424.444
426.239
427.56
428.431
429.716
431.397
433.457
436.249
438.898
440.723
442.125
443.152
443.826
444.82
446.118
447.703
449.22
450.402
451.812
453.175
454.214
454.971
455.466
456.194
457.141
458.287
459.807
461.188
462.133
462.852
463.383
463.734
464.258
464.936
465.75
466.796
467.71
468.333
468.797
469.143
469.372
469.712
470.147
470.661
471.321
472.198
473.347
474.857
476.732
479.067
481.96
485.171
488.31
491.151
493.628
495.764
497.594
499.243
500.802
502.257
503.571
504.716
505.685
506.481
507.112
507.594
507.938
508.154
508.265
508.292
508.273
508.218
508.162
508.115
508.086
508.076
508.082
508.103
508.137
508.174
508.229
508.277
508.326
508.505
508.336
281.594
306.368
294.747
277.607
274.848
279.138
289.638
300.624
309.786
317.311
324.061
330.292
336.37
342.441
348.833
355.68
363.178
371.447
380.131
388.58
395.832
401.55
405.999
409.171
411.68
413.544
414.78
416.612
419.018
421.974
425.973
429.755
432.366
434.362
435.802
436.741
438.109
439.856
441.947
444.663
447.175
448.895
450.212
451.181
451.818
452.763
454.003
455.524
456.986
458.122
459.471
460.775
461.763
462.477
462.94
463.613
464.483
465.527
466.92
468.163
468.981
469.556
469.937
470.173
470.489
470.855
471.253
471.746
472.113
472.291
472.357
472.382
472.386
472.377
472.356
472.353
472.386
472.461
472.516
472.782
473.743
475.874
478.974
482.565
486.158
489.302
491.808
493.921
495.799
497.549
499.296
500.989
502.537
503.884
505.021
505.95
506.686
507.239
507.619
507.839
507.925
507.92
507.851
507.756
507.675
507.617
507.595
507.6
507.635
507.683
507.757
507.822
507.911
507.985
508.067
508.279
508.154
281.63
306.265
294.529
277.178
274.135
278.297
288.555
299.268
308.091
315.299
321.624
327.466
333.057
338.717
344.664
351.263
358.801
367.453
377.078
387.026
395.988
403.062
408.797
412.962
416.287
418.775
420.42
422.871
426.053
429.924
434.955
439.408
442.28
444.344
445.761
446.668
447.948
449.537
451.38
453.7
455.714
457.03
458.001
458.713
459.182
459.882
460.83
462.02
463.167
464.069
465.125
466.116
466.83
467.338
467.666
468.151
468.763
469.489
470.45
471.355
472.044
472.645
473.15
473.503
474.079
474.874
475.892
477.119
478.023
478.532
478.8
478.929
478.983
478.98
478.838
478.446
477.628
476.23
474.282
471.978
470.858
471.684
474.575
478.861
483.183
486.728
489.227
491.323
493.292
495.194
497.16
499.128
500.945
502.513
503.825
504.912
505.791
506.461
506.929
507.203
507.309
507.296
507.201
507.087
507.007
506.971
506.983
507.037
507.135
507.235
507.368
507.478
507.625
507.741
507.87
508.132
508.072
281.669
306.155
294.3
276.739
273.364
277.408
287.375
297.808
306.206
313.027
318.761
324.093
328.912
333.799
338.928
344.674
351.552
359.914
370.059
381.405
392.545
401.877
409.919
415.618
420.168
423.468
425.586
428.633
432.262
436.34
440.441
443.022
444.278
444.933
445.315
445.52
445.835
446.158
446.604
447.293
447.899
448.256
448.528
448.729
448.857
449.035
449.309
449.652
449.928
449.961
449.753
449.248
448.696
448.316
448.049
447.786
447.72
448.043
449.719
452.206
454.245
455.868
456.951
457.62
458.44
459.447
460.539
462.212
464.259
465.769
466.91
467.701
468.173
468.857
469.713
470.57
471.065
470.703
468.643
465.222
463.721
465.218
469.63
475.29
480.348
483.878
485.977
487.545
489.461
491.491
493.634
495.947
498.151
500.084
501.712
503.096
504.25
505.147
505.785
506.181
506.374
506.398
506.336
506.245
506.205
506.224
506.323
506.471
506.665
506.85
507.067
507.25
507.47
507.64
507.839
508.146
508.162
281.703
306.052
294.077
276.31
272.577
276.529
286.144
296.366
304.239
310.613
315.71
320.3
324.18
327.873
331.671
335.699
340.745
347.424
356.733
368.736
382.714
394.189
404.333
411.879
416.865
420.097
422.016
424.709
427.466
431.183
431.552
430.125
427.767
425.037
422.81
421.272
418.95
415.842
412.506
408.255
405.806
405.087
405.466
406.18
407.001
408.596
411.412
415.229
418.731
421.176
423.285
424.553
424.896
424.856
424.861
424.65
424.541
424.311
424.798
427.745
432.663
438.192
443.269
446.856
452.809
461.304
472.625
484.569
491.28
493.518
493.841
493.663
492.979
491.502
489.436
487.063
483.745
477.012
466.186
454.577
449.465
451.726
459.748
468.692
475.327
478.826
480.052
480.725
482.304
484.755
487.517
490.592
493.693
496.368
498.568
500.402
501.943
503.186
504.123
504.786
505.2
505.364
505.381
505.347
505.364
505.466
505.676
505.931
506.24
506.529
506.844
507.106
507.407
507.635
507.905
508.24
508.343
281.733
305.967
293.895
275.909
271.889
275.726
285.052
295.05
302.396
308.41
312.803
316.602
319.514
321.764
323.745
325.388
327.201
330.271
336.538
349.182
364.271
381.978
400.732
419.168
435.305
451.051
463.853
485.363
517.55
548.466
561.633
558.343
551.389
541.81
534.062
528.828
520.98
510.638
498.21
476.284
457.248
445.501
441.996
442.399
443.445
446.995
455.147
467.597
479.044
486.901
493.311
496.328
497.039
496.789
496.388
495.415
493.634
490.366
489.038
491.396
495.789
496.117
494.799
491.612
479.674
460.969
447.421
447.138
453.445
461.629
466.964
470.365
472.399
475.109
478.11
480.972
481.576
478.616
465.055
445.759
434.68
437.011
447.304
458.464
466.076
469.54
469.976
469.762
470.576
473.221
476.7
480.648
484.833
488.49
491.493
494.077
496.391
498.431
500.174
501.605
502.683
503.343
503.698
503.887
504.098
504.368
504.742
505.151
505.601
506.006
506.428
506.772
507.153
507.432
507.769
508.125
508.305
281.755
305.902
293.792
275.549
271.389
275.072
284.254
293.932
301.01
306.552
310.537
313.533
315.543
316.731
316.524
315.844
313.911
311.616
313.639
324.515
350.983
399.937
485.804
552.524
598.228
628.409
645.354
671.28
693.85
707.747
700.095
680.225
658.599
640.278
626.983
618.349
606.553
591.282
572.8
535.666
495.813
472.791
461.517
461.742
463.234
469.14
484.789
513.17
536.991
552.947
565.16
565.833
562.212
556.061
550.203
541.498
527.125
495.594
430.646
340.308
303.676
297.866
294.704
289.968
277.619
264.584
260.338
265.926
281.412
295.927
308.435
318.102
324.465
334.436
348.255
366.243
388.257
411.105
420.267
415.378
415.885
426.287
442.023
454.005
459.827
460.472
458.619
455.243
453.472
453.992
456.953
461.19
465.945
471.126
476.355
481.432
486.193
490.491
494.232
497.321
499.623
501.097
501.954
502.442
502.844
503.266
503.776
504.306
504.867
505.363
505.859
506.256
506.688
506.996
507.374
507.736
507.96
281.767
305.872
293.724
275.303
271.021
274.617
283.699
293.13
300.06
305.201
308.892
311.398
312.601
312.793
311.513
308.551
303.343
295.11
291.946
307.008
374.059
512.355
603.292
641.107
660.72
673.02
681.133
695.431
698.55
691.132
669.034
640.13
615.273
592.704
576.51
564.578
548.95
525.993
485.766
424.062
364.094
367.07
381
401.127
421.821
447.455
498.641
535.607
587.617
601.648
589.378
553.691
512.383
480.736
454.47
418.228
372.582
322.545
283.599
299.946
341.499
361.675
360.034
355.596
353.681
353.409
354.007
354.164
352.273
349.983
347.365
344.911
343.387
341.236
339.649
337.568
338.997
355.876
378.881
392.722
405.491
421.994
436.803
448.352
452.869
451.856
448.342
443.194
439.215
437.121
436.785
438.172
442.066
448.394
457.145
467.087
476.256
484.106
490.454
495.202
498.379
500.221
501.149
501.589
501.948
502.366
502.916
503.505
504.128
504.672
505.208
505.628
506.081
506.393
506.793
507.151
507.396
281.771
305.868
293.664
275.15
270.751
274.31
283.334
292.571
299.412
304.299
307.685
309.992
310.495
310.083
307.984
303.365
295.549
283.194
273.93
303.036
437.721
559.396
612.282
588.903
553.355
557.669
574.661
578.421
570.521
552.225
540.499
513.661
481.774
458.409
439.58
426.82
403.022
353.277
313.98
287.181
286.819
318.481
365.074
390.557
416.48
447.413
494.687
564.243
579.173
568.443
508.801
388.212
310.369
280.221
276.263
287.817
309.393
332.994
394.867
501.698
529.446
529.146
497.107
468.892
433.485
415.965
415.319
419.748
425.38
429.251
432.165
434.478
436.337
437.991
437.526
434.354
419.498
393.143
388.904
389.351
399.239
414.089
425.559
436.882
440.983
441.336
441.442
440.424
437.666
434.441
431.536
430.477
432.508
439.365
450.209
462.771
474.181
483.573
490.775
495.779
498.769
500.201
500.725
500.884
501.111
501.497
502.078
502.715
503.387
503.961
504.521
504.949
505.416
505.73
506.147
506.496
506.764
281.775
305.865
293.614
275.035
270.569
274.101
283.089
292.184
298.934
303.706
306.797
309.007
309.006
308.222
305.456
299.655
290.038
274.432
261.115
313.814
468.304
559.889
534.118
498.251
496.126
515.7
542.663
537.439
515.286
495.03
451.84
377.031
331.748
296.573
270.931
257.069
250.008
232.44
215.36
290.311
324.513
295.257
327.014
383.89
433.979
456.214
510.215
527.02
494.908
407.002
301.274
263.723
256.546
262.492
272.722
294.284
336.982
415.072
533.344
579.051
570.344
559.583
522.079
489.954
443.981
422.036
423.531
429.115
435.121
440.631
446.334
452.033
456.441
462.637
470.452
478.734
474.912
445.705
405.636
390.057
393.502
402.893
413.196
425.868
431.945
437.552
443.962
446.498
445.396
441.484
437.126
434.832
436.474
443.574
454.942
467.633
478.435
486.906
493.186
497.279
499.401
500.106
500.151
500.079
500.195
500.607
501.254
501.947
502.66
503.26
503.836
504.272
504.751
505.068
505.506
505.844
506.14
281.783
305.86
293.568
274.93
270.432
273.94
282.894
291.888
298.537
303.246
306.108
308.158
307.92
306.74
303.424
296.706
285.701
267.425
251.727
322.549
475.684
535.734
500.708
462.297
446.199
498.304
515.999
463.931
404.276
322.058
233.843
206.126
210.102
198.934
200.361
212.287
224.716
199.774
246.063
304.878
295.389
388.132
464.416
525.853
523.267
496.938
476.28
373.712
291.526
285.797
268.27
259.956
259.681
265.423
275.993
320.706
403.402
529.354
600.398
589.854
570.007
558.782
510.785
475.522
398.016
355.116
337.303
339.216
349.686
362.938
381.261
398.881
416.612
439.177
458.344
483.158
498.693
482.374
429.123
392.582
385.331
391.491
403.767
419.45
429.423
441.093
451.175
455.308
454.913
451.287
447.149
445.022
446.908
454.023
464.55
475.915
484.839
491.256
495.789
498.483
499.565
499.618
499.322
499.103
499.217
499.699
500.431
501.186
501.94
502.56
503.152
503.597
504.09
504.413
504.871
505.203
505.528
281.794
305.831
293.513
274.846
270.327
273.812
282.735
291.667
298.236
302.897
305.611
307.498
307.128
305.658
301.903
294.543
282.536
262.256
245.72
329.194
476.603
519.832
455.186
419.839
408.343
483.944
488.778
374.002
280.568
184.303
146.78
154.525
144.682
137.188
161.353
203.685
219.741
201.809
285.354
326.515
350.473
506.861
504.782
536.562
505.688
328.754
242.096
266.822
259.5
253.246
240.554
233.09
233.796
238.058
231.212
325.848
459.96
581.624
631.35
575.265
550.322
536.639
443.516
424.162
295.735
235.033
222.344
220.751
230.515
246.963
275.225
298.48
333.274
397.091
435.105
477.302
509.077
500.104
445.262
394.318
377.63
382.833
398.798
416.723
430.389
444.469
455.261
460.37
460.691
457.975
454.703
453.256
455.405
462.316
471.978
482.205
489.698
494.531
497.479
498.846
499.083
498.718
498.222
498.031
498.239
498.851
499.672
500.484
501.274
501.913
502.518
502.973
503.482
503.812
504.292
504.618
504.974
281.796
305.825
293.5
274.813
270.259
273.725
282.622
291.524
298.04
302.665
305.286
307.058
306.6
304.947
300.899
293.145
280.483
258.937
242.282
332.374
472.238
507.674
439.886
404.844
390.506
436.357
207.527
218.071
217.786
315.733
352.144
444.248
524.875
502.798
523.318
203.159
304.056
481.315
599.834
637.862
563.833
535.656
515.095
378.266
291.335
334.4
406.78
467.018
516.084
511.236
455.238
394.564
372.082
377.181
396.419
414.978
430.395
445.172
456.216
462.354
463.772
462.147
459.447
458.268
460.334
466.8
475.772
485.415
492.327
496.213
498.144
498.709
498.499
497.826
497.31
497.187
497.5
498.222
499.113
499.968
500.782
501.433
502.05
502.514
503.034
503.371
503.866
504.193
504.565
281.793
305.829
293.506
274.783
270.158
273.593
282.451
291.313
297.753
302.319
304.81
306.404
305.816
303.897
299.418
291.09
277.473
254.099
237.256
334.596
465.923
489.769
403.931
371.03
359.999
388.129
200.518
215.494
239.136
331.375
355.105
495.28
532.516
501.643
504.486
205.42
309.423
515.904
619.215
639.547
546.541
512.785
478.312
329.866
195.872
223.188
294.26
422.615
509.8
523.12
467.29
392.562
361.709
369.564
393.073
410.947
428.35
444.182
456.438
464.26
467.687
467.887
466.394
465.309
466.808
472.215
479.914
488.323
494.466
497.508
498.293
497.983
497.059
496.145
495.683
495.72
496.279
497.181
498.193
499.117
499.97
500.641
501.278
501.756
502.297
502.651
503.167
503.506
503.892
281.796
305.804
293.476
274.725
270.015
273.413
282.219
291.034
297.378
301.854
304.193
305.55
304.789
302.531
297.494
288.451
273.649
248.148
230.978
335.318
455.628
471.127
379.668
345.069
331.638
332.686
209.343
226.508
224.14
311.353
359.233
509.605
530.791
490.481
492.983
266.728
362.967
563.543
638.716
631.96
516.051
476.898
425.198
296.964
196.36
202.603
222.608
285.386
456.451
512.001
464.676
381.283
348.216
364.013
385.762
402.205
421.596
440.169
455.475
465.474
471.62
474.446
474.721
473.774
474.048
476.892
482.594
489.73
494.642
496.347
496.137
494.941
493.662
492.899
492.809
493.287
494.354
495.54
496.734
497.757
498.665
499.371
500.042
500.551
501.131
501.512
502.068
502.425
502.844
281.803
305.775
293.431
274.649
269.847
273.205
281.945
290.695
296.929
301.278
303.456
304.516
303.545
300.888
295.2
285.37
269.31
241.755
222.787
329.103
440.779
450.621
351.654
312.624
292.735
287.816
210.775
236.308
234.241
225.871
378.492
489.483
502.512
472.437
489.456
288.594
412.808
603.09
657.54
596.059
478.11
439.603
408.974
313.042
217.138
229.656
230.444
241.436
281.88
419.472
417.521
335.181
329.77
349.807
366.004
384.575
411.627
438.029
455.842
468.163
476.384
481.442
482.892
481.575
479.723
479.804
482.74
487.478
490.258
490.784
490.056
488.686
487.861
487.799
488.468
489.866
491.543
493.129
494.569
495.725
496.716
497.481
498.215
498.782
499.426
499.855
500.474
500.856
501.333
281.813
305.741
293.368
274.533
269.631
272.942
281.594
290.241
296.345
300.495
302.489
303.138
301.888
298.717
292.217
281.435
264.065
234.485
211.375
314.119
426.25
437.117
336.481
296.387
270.821
256.737
181.107
220.157
221.377
288.701
445.835
433.456
453.723
430.996
461.756
289.568
412.049
599.859
648.648
561.839
460.316
426.383
416.667
350.585
213.685
222.194
204.078
308.62
342.845
342.938
335.782
308.919
293.348
300.453
318.358
355.474
402.669
439.903
463.04
475.755
483.851
487.663
488.05
486.021
482.346
480.093
479.83
479.516
478.722
477.805
477.271
477.318
478.157
479.831
482.052
484.463
486.846
488.927
490.705
492.093
493.269
494.186
495.065
495.754
496.522
497.043
497.78
498.201
498.806
281.823
305.718
293.319
274.4
269.437
272.707
281.286
289.813
295.811
299.752
301.593
301.85
300.349
296.705
289.522
277.962
259.87
229.741
200.022
286.269
414.086
436.131
345.652
302.511
278.3
266.469
155.519
181.502
264.239
463.923
515.795
383.623
391.252
389.191
419.946
271.036
365.815
578.503
635.683
565.403
470.863
444.309
442.348
398.56
222.441
222.687
213.204
320.502
384.985
405.39
355.911
306.591
274.556
250.449
281.253
344.177
408.163
454.238
479.106
488.749
490.342
489.88
486.918
481.103
475.717
472.202
469.18
465.39
462.717
462.044
463.145
465.777
468.97
472.223
475.409
478.427
481.262
483.705
485.809
487.488
488.934
490.082
491.166
492.024
492.952
493.59
494.486
494.948
495.736
281.832
305.705
293.286
274.294
269.315
272.557
281.09
289.526
295.447
299.258
300.988
300.992
299.321
295.353
287.748
275.755
257.363
227.878
194.111
255.771
401.787
438.546
365.22
319.356
300.031
295.767
159.585
243.576
402.349
525.466
530.97
369.029
321.358
352.531
380.5
287.409
358.049
563.364
626.663
571.067
490.668
477.29
477.211
441.797
237.689
235.812
197.35
276.002
337.203
368.785
367.374
295.733
254.437
229.417
276.2
346.98
416.349
466.398
491.509
495.996
491.805
481.17
470.735
462.225
457.051
454.964
453.258
451.211
450.524
451.767
454.962
458.949
463.076
466.867
470.391
473.644
476.706
479.391
481.756
483.684
485.358
486.697
487.953
488.948
490.008
490.745
491.775
492.265
493.223
281.841
305.696
293.251
274.208
269.221
272.45
280.939
289.317
295.159
298.892
300.497
300.379
298.527
294.327
286.367
274.191
255.496
227.046
192.171
225.26
383.137
441.659
394.5
349.828
337.05
336.186
266.801
378.034
459.529
537.969
512.37
368.667
267.757
334.309
361.016
310.003
359.059
549.535
618.234
580.95
510.198
498.705
512.316
483.929
249.998
253.306
204.402
293.707
329.307
353.811
359.147
293.225
249.352
227.77
277.407
348.561
418.808
469.938
495.156
497.393
485.542
465.964
450.094
440.171
436.614
436.745
438.244
439.795
442.125
445.585
449.819
454.256
458.51
462.417
466.076
469.468
472.71
475.607
478.203
480.344
482.217
483.719
485.122
486.239
487.417
488.243
489.393
489.916
491.02
281.85
305.671
293.199
274.142
269.142
272.366
280.817
289.168
294.943
298.633
300.131
299.945
297.958
293.582
285.375
273.083
254.209
226.646
192.009
204.397
361.775
441.736
425.711
375.742
361.635
401.793
429.461
449.035
473.356
528.265
483.478
361.343
231.775
329.688
368.394
337.631
361.585
538.327
610.773
590.506
525.122
515.64
534.78
506.256
261.08
258.397
228.623
304.914
333.413
351.039
353.695
295.311
252.539
232.282
279.403
348.324
417.705
468.769
491.76
491.008
474.423
451.359
433.574
423.98
421.971
424.128
428.768
433.27
437.659
442.146
446.644
450.961
455.047
458.889
462.602
466.111
469.506
472.574
475.346
477.649
479.669
481.297
482.815
484.027
485.3
486.199
487.45
488.003
489.231
281.851
305.666
293.187
274.123
269.092
272.308
280.732
289.071
294.805
298.466
299.892
299.662
297.59
293.096
284.755
272.357
253.433
226.357
192.901
189.961
344.961
440.273
441.684
402.35
387.223
424.315
467.76
347.576
310.897
304.206
301.038
306.354
327.774
377.967
415.098
464.31
456.723
473.093
511.982
468.329
360.758
220.773
300.809
351.132
330.12
316.079
317.6
293.962
195.594
104.338
93.42
101.203
126.264
226.738
339.703
361.798
530.832
603.499
598.392
534.111
524.807
556.119
536.865
421.152
219.435
217.497
257.063
269.645
216.823
194.4
186.122
202.704
268.17
256.392
246.204
308.05
336.878
354.167
352.109
298.744
258.014
236.922
279.526
345.332
412.534
461.398
482.338
480.484
462.855
440.103
423.257
415.201
414.284
417.767
424.006
429.962
435.304
440.18
444.656
448.778
452.685
456.433
460.162
463.765
467.281
470.47
473.364
475.775
477.896
479.61
481.206
482.486
483.826
484.778
486.098
486.679
487.988
281.847
305.675
293.196
274.117
269.019
272.219
280.605
288.931
294.607
298.225
299.544
299.249
297.06
292.39
283.872
271.291
252.323
225.9
195.024
175.617
293.349
433.356
474.359
438.642
424.627
446.914
481.114
459.997
461.559
464.26
475.971
485.478
502.039
501.437
494.953
481.572
427.904
470.292
497.834
447.89
361.045
262.063
230.909
278.859
303.489
314.887
326.752
319.541
260.39
147.472
118.565
131.836
134.464
225.108
330.076
349.704
508.876
596.094
609.708
551.156
544.002
573.319
563.032
460.126
248.814
281.878
309.475
299.361
250.562
231.306
203.612
244.137
262.928
231.935
264.542
310.014
341.183
361.564
353.703
305.775
268.192
243.448
276.449
335.184
397.128
441.3
459.023
456.562
440.158
421.412
408.873
404.886
406.699
412.542
419.799
426.628
432.568
437.554
441.765
445.491
449.052
452.603
456.322
460.059
463.789
467.187
470.273
472.852
475.127
476.974
478.694
480.08
481.526
482.565
483.989
484.625
486.052
281.848
305.656
293.173
274.091
268.92
272.095
280.442
288.743
294.357
297.918
299.104
298.73
296.391
291.492
282.765
269.917
250.909
225.205
197.797
174.816
215.833
391.19
473.228
501.622
519.714
534.123
548.043
569.729
576.266
584.965
604.354
602.667
582.464
529.849
454.332
382.319
397.87
470.252
466.751
434.074
395.155
379.338
349.128
322.297
315.275
309.464
314.585
299.326
211.17
151.721
142.434
152.888
155.765
181.194
266.755
299.422
458.037
576.926
616.114
570.259
563.181
614.374
592.54
501.77
286.271
295.749
325.481
319.399
283.001
259.051
229.303
221.789
220.384
216.343
283.043
315.57
353.827
378.998
361.871
312.929
269.987
239.208
255.942
301.429
351.22
388.376
405.544
407.046
401.483
396.099
395.059
397.206
403.074
410.737
418.375
425.047
430.445
434.657
438.042
441.032
444.032
447.264
450.907
454.764
458.744
462.437
465.823
468.66
471.168
473.21
475.114
476.654
478.261
479.427
481.009
481.724
483.33
281.853
305.634
293.143
274.048
268.814
271.958
280.266
288.516
294.074
297.556
298.595
298.131
295.608
290.469
281.463
268.338
249.146
223.98
199.038
185.016
175.587
253.461
390.751
462.463
505.083
533.505
558.27
594.093
632.82
645.924
618.183
529.724
415.239
327.369
314.961
335.714
415.434
458.092
441.114
433.016
519.258
555.138
544.769
516.938
478.721
373.989
254.476
192.664
167.365
152.098
145.216
179.555
198.761
200.336
204.833
214.775
324.968
517.867
596.961
583.523
588.346
611.848
580.397
486.927
279.397
319.464
351.434
353.335
306.245
273.289
237.834
224.667
227.766
264.556
310.606
341.027
378.223
400.269
376.474
318.25
264.739
209.689
188.707
224.971
277.094
316.32
343.254
361.582
373.638
381.996
389.167
396.39
404.065
411.953
419.184
424.898
428.857
431.508
433.486
435.385
437.655
440.497
444.021
447.957
452.167
456.156
459.868
463.011
465.823
468.132
470.308
472.078
473.935
475.282
477.11
477.933
479.788
281.859
305.608
293.104
273.979
268.694
271.796
280.066
288.229
293.733
297.101
297.975
297.388
294.639
289.189
279.863
266.257
246.663
221.115
198.588
191.047
188.043
226.169
325.082
386.868
425.984
464.199
488.208
523.869
561.189
584.79
573.213
525.926
460.269
394.73
360.098
371.788
416.105
413.621
423.34
549.65
657.87
648.165
646.838
632.961
598.296
451.175
287.067
276.674
260.025
257.99
265.592
276.333
277.608
276.904
275.688
269.994
258.89
307.33
500.528
550.621
561.161
561.747
520.113
436.873
273.683
301.885
340.175
343.227
293.924
266.574
258.436
261.567
278.324
309.821
354.802
381.218
393.525
392.898
368.458
298.276
250.372
231.361
245.002