/*--------------------------------*- C++ -*----------------------------------*\
| =========                 |                                                 |
| \\      /  F ield         | OpenFOAM: The Open Source CFD Toolbox           |
|  \\    /   O peration     | Version:  v2006                                 |
|   \\  /    A nd           | Website:  www.openfoam.com                      |
|    \\/     M anipulation  |                                                 |
\*---------------------------------------------------------------------------*/
FoamFile
{
    version     2.0;
    format      ascii;
    class       volScalarField;
    location    "0.54";
    object      p;
}
// * * * * * * * * * * * * * * * * * * * * * * * * * * * * * * * * * * * * * //

dimensions      [0 2 -2 0 0 0 0];


internalField   nonuniform List<scalar> 
374400
(
0.183477
0.111366
0.0218797
-0.0163388
-0.0205951
-0.0192127
-0.0231751
-0.0327384
-0.0461332
-0.0616796
-0.0780867
-0.0945053
-0.110951
-0.127145
-0.142664
-0.157264
-0.171068
-0.184443
-0.196986
-0.208007
-0.216634
-0.222876
-0.227497
-0.230685
-0.233195
-0.235039
-0.236242
-0.23801
-0.240274
-0.24297
-0.246494
-0.249737
-0.251918
-0.253583
-0.254771
-0.255536
-0.256653
-0.258064
-0.259694
-0.261719
-0.263404
-0.264398
-0.265078
-0.265505
-0.26576
-0.266106
-0.266464
-0.266752
-0.266796
-0.266695
-0.266446
-0.266009
-0.265528
-0.26506
-0.26472
-0.264184
-0.263357
-0.26216
-0.260138
-0.257638
-0.25557
-0.25378
-0.252331
-0.251339
-0.249814
-0.247639
-0.244744
-0.240319
-0.235402
-0.231619
-0.228459
-0.225979
-0.224304
-0.221754
-0.218212
-0.21362
-0.206842
-0.196532
-0.180842
-0.158864
-0.131417
-0.100163
-0.0662245
-0.031871
-0.000869035
0.0247767
0.0452831
0.0612815
0.0735064
0.0826171
0.0891456
0.093498
0.0960158
0.0969947
0.0967005
0.0953657
0.0931931
0.090361
0.0870146
0.0832711
0.0792245
0.0749502
0.0705068
0.0659398
0.0612841
0.0565667
0.0518032
0.0470052
0.0421771
0.0373191
0.032434
0.0275227
0.022591
0.0176285
0.0126495
0.00773751
0.000855558
0.186133
0.114051
0.024597
-0.0135974
-0.0178154
-0.0163886
-0.0203045
-0.0298292
-0.0431992
-0.0587433
-0.0751844
-0.0916561
-0.108227
-0.124601
-0.140377
-0.155317
-0.169547
-0.183435
-0.196545
-0.208123
-0.217232
-0.223844
-0.228757
-0.232158
-0.23484
-0.236812
-0.238102
-0.239999
-0.242434
-0.245343
-0.249162
-0.252696
-0.255082
-0.256908
-0.258214
-0.259057
-0.26029
-0.261852
-0.263666
-0.265941
-0.26786
-0.269011
-0.269811
-0.270323
-0.270632
-0.271058
-0.271519
-0.271928
-0.272082
-0.272062
-0.271908
-0.271553
-0.271129
-0.270698
-0.270381
-0.269875
-0.269083
-0.267922
-0.265934
-0.263445
-0.261371
-0.259566
-0.258102
-0.257096
-0.255548
-0.253338
-0.250394
-0.245885
-0.240865
-0.236997
-0.233761
-0.23122
-0.229501
-0.226884
-0.223249
-0.218537
-0.211579
-0.200998
-0.184894
-0.162344
-0.134195
-0.102151
-0.0673749
-0.0322046
-0.000501628
0.0256769
0.0465452
0.0627555
0.0750753
0.0841903
0.090658
0.0949121
0.0973055
0.0981485
0.0977147
0.0962426
0.0939421
0.0909926
0.0875416
0.0837047
0.0795761
0.075233
0.0707321
0.0661174
0.06142
0.0566786
0.0518926
0.0470767
0.0422352
0.0373676
0.0324737
0.0275552
0.0226191
0.0176504
0.0126637
0.00774725
0.000856717
0.191494
0.119429
0.0300124
-0.00811209
-0.0122422
-0.010717
-0.0145307
-0.0239612
-0.0372608
-0.0527742
-0.0692637
-0.0858284
-0.102619
-0.11934
-0.135623
-0.151237
-0.166322
-0.181257
-0.195531
-0.208265
-0.218369
-0.225756
-0.231283
-0.235133
-0.238177
-0.240419
-0.241887
-0.244054
-0.246847
-0.250201
-0.254639
-0.25878
-0.261587
-0.263745
-0.265297
-0.266302
-0.267776
-0.269653
-0.271851
-0.274639
-0.277034
-0.2785
-0.279541
-0.280226
-0.280648
-0.281239
-0.281905
-0.282555
-0.282922
-0.283061
-0.283089
-0.28289
-0.282576
-0.282215
-0.281942
-0.281498
-0.280773
-0.279676
-0.277734
-0.275231
-0.273117
-0.27127
-0.269765
-0.268733
-0.267141
-0.264856
-0.261801
-0.257097
-0.251832
-0.247768
-0.244371
-0.241705
-0.239903
-0.237159
-0.23334
-0.228384
-0.221064
-0.209924
-0.192962
-0.169212
-0.139577
-0.105893
-0.0694142
-0.0326147
0.00044931
0.0276418
0.0491977
0.065816
0.0783178
0.0874423
0.0937941
0.0978455
0.0999861
0.100552
0.0998324
0.0980808
0.0955107
0.0923116
0.0886366
0.0846058
0.0803096
0.0758207
0.0711983
0.0664892
0.0617261
0.056913
0.052079
0.0472277
0.0423598
0.0374722
0.0325622
0.0276293
0.022678
0.0176965
0.0127007
0.00777187
0.000863953
0.199521
0.127486
0.0381451
0.000145595
-0.0038263
-0.00211504
-0.00573286
-0.0149738
-0.0281083
-0.0435083
-0.0599177
-0.0766316
-0.0936994
-0.110896
-0.127889
-0.144486
-0.16086
-0.177411
-0.193525
-0.208109
-0.219821
-0.228469
-0.235007
-0.239593
-0.243227
-0.245912
-0.247675
-0.250282
-0.253666
-0.257757
-0.263223
-0.268377
-0.271893
-0.274609
-0.276573
-0.277848
-0.279724
-0.282128
-0.284966
-0.288612
-0.291814
-0.293819
-0.295269
-0.296246
-0.296856
-0.297721
-0.298738
-0.299799
-0.300535
-0.300947
-0.301292
-0.301368
-0.301243
-0.301001
-0.300799
-0.30045
-0.299836
-0.298847
-0.297
-0.294517
-0.292365
-0.290455
-0.288883
-0.287796
-0.286111
-0.283691
-0.280443
-0.275423
-0.269787
-0.265411
-0.261732
-0.258837
-0.256873
-0.253878
-0.24972
-0.244323
-0.236353
-0.224226
-0.205788
-0.180019
-0.147928
-0.111561
-0.0723347
-0.0329507
0.00222583
0.030948
0.0535012
0.0706705
0.0833739
0.0924394
0.0985461
0.102244
0.103967
0.104083
0.102913
0.100728
0.0977615
0.0942005
0.0901992
0.0858812
0.0813398
0.0766439
0.0718509
0.0670034
0.0621256
0.0572339
0.052338
0.0474396
0.0425361
0.0376209
0.0326881
0.0277351
0.022767
0.0177693
0.0127524
0.00780273
0.000874874
0.21019
0.13821
0.0489907
0.0111926
0.00748304
0.00950812
0.00623512
-0.00265631
-0.0154631
-0.030587
-0.0467656
-0.0635634
-0.0808387
-0.0985361
-0.116371
-0.134226
-0.152319
-0.171097
-0.189818
-0.207078
-0.221155
-0.231666
-0.239708
-0.245394
-0.24991
-0.253257
-0.255462
-0.258733
-0.263003
-0.2682
-0.275204
-0.281868
-0.28644
-0.289987
-0.292564
-0.294243
-0.296719
-0.299906
-0.303697
-0.30862
-0.312993
-0.315772
-0.317809
-0.319205
-0.320087
-0.321349
-0.322859
-0.324493
-0.325749
-0.326541
-0.327315
-0.32774
-0.327855
-0.327765
-0.327658
-0.327443
-0.326959
-0.326083
-0.324285
-0.321698
-0.319403
-0.317358
-0.315665
-0.314497
-0.312682
-0.31004
-0.306471
-0.300911
-0.294602
-0.289703
-0.285604
-0.282385
-0.28021
-0.276894
-0.272267
-0.26626
-0.257378
-0.243851
-0.223273
-0.194535
-0.158825
-0.118541
-0.0753743
-0.0323908
0.00562608
0.0363284
0.0601163
0.0779109
0.0907715
0.099663
0.105358
0.10851
0.109611
0.109076
0.107257
0.10445
0.1009
0.096811
0.0923413
0.087616
0.0827277
0.0777413
0.07271
0.0676707
0.0626456
0.0576437
0.0526681
0.0477111
0.0427629
0.0378136
0.0328547
0.0278775
0.0228844
0.0178623
0.0128218
0.00784684
0.000889494
0.223438
0.151543
0.0625145
0.0250243
0.0217221
0.0242468
0.021541
0.0132458
0.00102892
-0.0135518
-0.029315
-0.0458493
-0.0631102
-0.0811887
-0.0998541
-0.119143
-0.139336
-0.160991
-0.183227
-0.204204
-0.221664
-0.234873
-0.245112
-0.252409
-0.258222
-0.262545
-0.2654
-0.269651
-0.275235
-0.282077
-0.291382
-0.300323
-0.306485
-0.31128
-0.314778
-0.317062
-0.320435
-0.3248
-0.330025
-0.336872
-0.343035
-0.347001
-0.349936
-0.351969
-0.35326
-0.355117
-0.357386
-0.359918
-0.361982
-0.363356
-0.364787
-0.365778
-0.366279
-0.366426
-0.366454
-0.366417
-0.366139
-0.365456
-0.363806
-0.361211
-0.35879
-0.356562
-0.354685
-0.353369
-0.351308
-0.348324
-0.344276
-0.337956
-0.330788
-0.325168
-0.320406
-0.316644
-0.314083
-0.310165
-0.304735
-0.297685
-0.287281
-0.271477
-0.247563
-0.214337
-0.173271
-0.12728
-0.0784973
-0.0305369
0.0112339
0.0443932
0.0695609
0.087917
0.100741
0.109163
0.114156
0.116474
0.116669
0.115232
0.112543
0.108929
0.104645
0.0998967
0.0948476
0.0896255
0.0843188
0.0789845
0.0736725
0.068411
0.0632209
0.0580943
0.0530322
0.0480156
0.0430265
0.0380452
0.0330604
0.0280573
0.0230343
0.0179818
0.0129115
0.00790121
0.000910317
0.239145
0.167379
0.0786311
0.041592
0.0388942
0.0421719
0.0403432
0.0330076
0.021791
0.00820062
-0.00666691
-0.0224771
-0.0392693
-0.0573486
-0.0766748
-0.0972898
-0.119816
-0.144977
-0.171774
-0.197807
-0.219982
-0.237042
-0.250441
-0.260051
-0.267733
-0.273473
-0.277277
-0.282957
-0.290455
-0.299693
-0.312348
-0.324583
-0.333044
-0.339647
-0.344475
-0.347635
-0.352309
-0.358366
-0.36564
-0.375208
-0.383843
-0.389421
-0.393571
-0.396466
-0.398313
-0.40098
-0.404258
-0.407958
-0.411025
-0.413108
-0.415318
-0.416903
-0.417796
-0.418177
-0.418353
-0.418516
-0.418391
-0.417785
-0.415995
-0.412909
-0.410003
-0.407364
-0.40515
-0.403618
-0.401223
-0.397669
-0.39282
-0.385173
-0.376381
-0.369542
-0.363838
-0.359371
-0.35636
-0.35177
-0.345342
-0.336998
-0.32467
-0.305919
-0.27749
-0.238047
-0.189519
-0.135695
-0.079472
-0.0252448
0.0209695
0.0567994
0.0832592
0.101901
0.114336
0.121896
0.1258
0.126871
0.125818
0.123151
0.119295
0.114596
0.109325
0.103703
0.0978984
0.0920315
0.0861863
0.0804151
0.0747548
0.0692274
0.0638292
0.0585654
0.0534144
0.04834
0.043314
0.0383081
0.0332988
0.0282683
0.0232146
0.0181258
0.0130181
0.00796529
0.000936961
0.257103
0.185522
0.0971676
0.0607568
0.0589193
0.0632905
0.0627569
0.0568765
0.0472386
0.0353023
0.0220963
0.00793948
-0.00768823
-0.0249773
-0.0441916
-0.0656713
-0.0904637
-0.119622
-0.152148
-0.184977
-0.213786
-0.236428
-0.254473
-0.267507
-0.277971
-0.285822
-0.291042
-0.29886
-0.309235
-0.322084
-0.3398
-0.357035
-0.368971
-0.378293
-0.385116
-0.389587
-0.396207
-0.404805
-0.41516
-0.428818
-0.441204
-0.449242
-0.45525
-0.459472
-0.462172
-0.466082
-0.470943
-0.47648
-0.481154
-0.484374
-0.487841
-0.490489
-0.49208
-0.492867
-0.493259
-0.493691
-0.493873
-0.49352
-0.491849
-0.488603
-0.485326
-0.482195
-0.479507
-0.477596
-0.474578
-0.470215
-0.46427
-0.454962
-0.444382
-0.436007
-0.42884
-0.423158
-0.419266
-0.413297
-0.405071
-0.3944
-0.378689
-0.354919
-0.319248
-0.270174
-0.210324
-0.144873
-0.0781074
-0.0155679
0.0360448
0.0746586
0.102054
0.120414
0.131744
0.137865
0.140065
0.139411
0.136663
0.13238
0.127039
0.12099
0.114521
0.107855
0.101174
0.0945655
0.0881129
0.0818529
0.0758054
0.0699851
0.0643934
0.0590092
0.0537881
0.0486782
0.0436326
0.0386138
0.0335872
0.0285302
0.0234428
0.0183099
0.0131558
0.0080416
0.000978202
0.27699
0.20566
0.117839
0.0822763
0.0816063
0.0874799
0.0887736
0.0850028
0.077727
0.0683754
0.0579085
0.0464764
0.0334867
0.0185396
0.000907079
-0.0202457
-0.0462591
-0.0795711
-0.118973
-0.160731
-0.198868
-0.229641
-0.254567
-0.272728
-0.287391
-0.298448
-0.305826
-0.316911
-0.331675
-0.350038
-0.375484
-0.400318
-0.417502
-0.430901
-0.440692
-0.447104
-0.456591
-0.468897
-0.483692
-0.503155
-0.520756
-0.532142
-0.540645
-0.546616
-0.550433
-0.555947
-0.562761
-0.570478
-0.576917
-0.581322
-0.586008
-0.589443
-0.591453
-0.592409
-0.592894
-0.593414
-0.593448
-0.592649
-0.589767
-0.584534
-0.579635
-0.57524
-0.571583
-0.569076
-0.565161
-0.559296
-0.551314
-0.53876
-0.52437
-0.513303
-0.504192
-0.497112
-0.492375
-0.485175
-0.475031
-0.461866
-0.442413
-0.412802
-0.367958
-0.305945
-0.230443
-0.149194
-0.0689824
0.00325065
0.0604308
0.101284
0.128597
0.145577
0.154729
0.158347
0.158004
0.154926
0.149921
0.143567
0.136308
0.128535
0.120552
0.112594
0.104817
0.0973072
0.0901163
0.0832716
0.0767753
0.0706351
0.0648352
0.0593453
0.0540874
0.0489792
0.0439493
0.0389409
0.03391
0.0288317
0.023711
0.0185299
0.013319
0.00811978
0.00103076
0.297573
0.226554
0.13939
0.104879
0.10567
0.11346
0.11712
0.116145
0.112106
0.10644
0.100087
0.09311
0.0848332
0.0742608
0.060822
0.0425708
0.0172448
-0.0183827
-0.0647803
-0.117601
-0.168681
-0.211371
-0.246675
-0.272696
-0.293821
-0.309833
-0.320527
-0.336621
-0.358158
-0.385011
-0.422243
-0.458384
-0.483207
-0.502463
-0.516491
-0.52569
-0.5393
-0.55686
-0.577954
-0.605734
-0.630887
-0.647246
-0.659546
-0.668247
-0.673842
-0.681945
-0.691973
-0.703401
-0.713069
-0.719724
-0.726825
-0.732106
-0.735188
-0.73665
-0.737329
-0.737988
-0.738061
-0.736999
-0.733291
-0.7269
-0.720844
-0.715184
-0.710412
-0.707015
-0.701679
-0.694193
-0.684177
-0.668855
-0.651814
-0.638217
-0.626379
-0.616889
-0.610307
-0.600151
-0.586231
-0.568112
-0.541338
-0.500726
-0.439794
-0.355762
-0.254333
-0.148592
-0.049749
0.0338502
0.0958464
0.137177
0.162814
0.176763
0.182482
0.182703
0.179102
0.172897
0.165017
0.156051
0.14644
0.136593
0.126831
0.117382
0.108388
0.0998939
0.0919032
0.0844436
0.0774875
0.0710441
0.0650928
0.0595542
0.0543241
0.0492808
0.0443138
0.0393399
0.0343181
0.0292227
0.0240609
0.0188142
0.0135337
0.00821695
0.0011184
0.317325
0.246654
0.160217
0.126881
0.129325
0.139296
0.145692
0.148031
0.14793
0.146913
0.145974
0.145181
0.143821
0.140864
0.134989
0.123842
0.103762
0.0697211
0.0183979
-0.0463718
-0.114143
-0.173582
-0.224233
-0.262276
-0.293507
-0.317388
-0.333432
-0.357649
-0.390067
-0.430498
-0.486532
-0.540533
-0.576978
-0.604855
-0.624906
-0.637875
-0.656942
-0.681574
-0.710893
-0.748948
-0.782994
-0.805029
-0.821554
-0.833233
-0.840753
-0.851644
-0.864983
-0.879977
-0.892171
-0.900365
-0.908698
-0.914082
-0.916637
-0.917291
-0.917465
-0.91728
-0.915287
-0.910898
-0.900986
-0.88657
-0.87465
-0.864695
-0.856894
-0.851748
-0.843886
-0.832353
-0.817284
-0.794728
-0.770405
-0.75279
-0.738898
-0.728264
-0.721315
-0.710903
-0.695696
-0.675611
-0.645045
-0.596705
-0.519801
-0.408677
-0.272882
-0.135956
-0.0153514
0.0799499
0.145375
0.184876
0.205967
0.214376
0.214802
0.210012
0.202066
0.192098
0.180858
0.16899
0.156818
0.144695
0.132976
0.121927
0.111651
0.102137
0.0933619
0.0852311
0.0777932
0.0710552
0.0649973
0.0594996
0.0543949
0.0495003
0.0446591
0.0397634
0.0347728
0.0296662
0.0244619
0.0191424
0.0137838
0.00832327
0.00122682
0.335596
0.265288
0.179603
0.147506
0.151695
0.163988
0.173344
0.17932
0.183651
0.188018
0.193569
0.200527
0.208352
0.216081
0.22222
0.22386
0.215968
0.19086
0.140416
0.065101
-0.0241675
-0.108694
-0.184069
-0.241652
-0.28885
-0.324723
-0.348467
-0.384208
-0.432709
-0.49271
-0.574696
-0.65069
-0.699905
-0.736868
-0.763399
-0.780748
-0.806184
-0.838041
-0.875582
-0.923769
-0.967523
-0.997837
-1.02195
-1.03998
-1.05182
-1.06921
-1.09152
-1.11771
-1.1401
-1.15464
-1.16878
-1.17686
-1.17936
-1.17849
-1.17685
-1.17316
-1.16645
-1.1554
-1.13508
-1.11145
-1.09467
-1.08124
-1.07103
-1.06403
-1.05361
-1.04089
-1.02566
-1.00519
-0.984512
-0.967595
-0.951845
-0.938562
-0.928831
-0.913377
-0.892384
-0.864235
-0.821911
-0.755197
-0.647101
-0.484512
-0.28798
-0.103559
0.0432595
0.146736
0.209121
0.241375
0.254701
0.256181
0.250273
0.240193
0.22752
0.213304
0.198321
0.18298
0.16779
0.153025
0.139081
0.126268
0.11464
0.104087
0.0944457
0.0856626
0.0777392
0.0707388
0.0646518
0.0593023
0.054433
0.0497717
0.04511
0.0403207
0.0353642
0.0302346
0.0249735
0.0195618
0.0141109
0.00847839
0.00136893
0.351926
0.281973
0.197022
0.166171
0.172099
0.186717
0.199059
0.208748
0.217728
0.227843
0.240535
0.256334
0.275113
0.29638
0.318976
0.340082
0.353753
0.349278
0.311162
0.231793
0.119866
0.00616443
-0.0983462
-0.179728
-0.24799
-0.301543
-0.337795
-0.394267
-0.474806
-0.580011
-0.726648
-0.856933
-0.937405
-0.994033
-1.03067
-1.05334
-1.08463
-1.11963
-1.15536
-1.19331
-1.2215
-1.24049
-1.25741
-1.27207
-1.28261
-1.29916
-1.32201
-1.35185
-1.37738
-1.39354
-1.40928
-1.4164
-1.4168
-1.4139
-1.41119
-1.40597
-1.39518
-1.3768
-1.34137
-1.29723
-1.26708
-1.24318
-1.22581
-1.21424
-1.19628
-1.1706
-1.13693
-1.09176
-1.05698
-1.03752
-1.02536
-1.01758
-1.01287
-1.00642
-0.995844
-0.980028
-0.952267
-0.898069
-0.78389
-0.573669
-0.303361
-0.0585236
0.121169
0.233999
0.290729
0.311503
0.31232
0.302373
0.287345
0.270195
0.252084
0.23342
0.214669
0.19621
0.17815
0.160741
0.144547
0.129998
0.11711
0.10566
0.0951839
0.0857312
0.0772805
0.0700068
0.0639497
0.0588642
0.0543555
0.0500322
0.0456194
0.0409651
0.0360489
0.0308908
0.0255605
0.0200424
0.0144924
0.00867324
0.00154979
0.365333
0.29565
0.211335
0.181624
0.18913
0.205819
0.220815
0.233894
0.247152
0.262644
0.282187
0.306656
0.33659
0.372242
0.413477
0.458595
0.502255
0.531832
0.522076
0.447872
0.311457
0.156662
-0.00551346
-0.156682
-0.299506
-0.420562
-0.505037
-0.633648
-0.797763
-0.979729
-1.16508
-1.27493
-1.32088
-1.34729
-1.36237
-1.36955
-1.37753
-1.38606
-1.39434
-1.40687
-1.42964
-1.4683
-1.51611
-1.56431
-1.59922
-1.65212
-1.72328
-1.8078
-1.86865
-1.8977
-1.91504
-1.90362
-1.87859
-1.85034
-1.82913
-1.7942
-1.73963
-1.6647
-1.55411
-1.47016
-1.44394
-1.42549
-1.40484
-1.39338
-1.38668
-1.3933
-1.402
-1.39395
-1.3784
-1.36657
-1.35455
-1.34441
-1.33741
-1.3266
-1.30863
-1.28023
-1.22658
-1.1264
-0.932472
-0.625106
-0.276364
0.0152782
0.219474
0.334828
0.378175
0.3809
0.366867
0.345811
0.322288
0.29871
0.275604
0.253037
0.231075
0.209708
0.188755
0.168521
0.149812
0.133393
0.119315
0.10698
0.0957743
0.0856086
0.0765931
0.069057
0.0630887
0.0583449
0.0542742
0.05034
0.0461938
0.0416748
0.036788
0.0315823
0.0261688
0.0205327
0.0148834
0.00887158
0.00175132
0.375246
0.305683
0.221838
0.193084
0.201853
0.220123
0.237167
0.25292
0.269574
0.289373
0.314425
0.346032
0.3852
0.433183
0.491009
0.558693
0.633245
0.702629
0.734582
0.680829
0.513547
0.264262
-0.0565538
-0.361602
-0.606683
-0.772402
-0.875694
-1.00946
-1.12687
-1.22551
-1.35514
-1.45727
-1.49113
-1.51831
-1.546
-1.56642
-1.59439
-1.60857
-1.60042
-1.53907
-1.46032
-1.46549
-1.51499
-1.58795
-1.65123
-1.76486
-1.95824
-2.22922
-2.42033
-2.49934
-2.53791
-2.51163
-2.44843
-2.37767
-2.32449
-2.23499
-2.08833
-1.87779
-1.57744
-1.28582
-1.09894
-1.00141
-0.97159
-0.967054
-0.982478
-1.04378
-1.14646
-1.30296
-1.43515
-1.50805
-1.55364
-1.57873
-1.59293
-1.61062
-1.62486
-1.62964
-1.60797
-1.51221
-1.22842
-0.744469
-0.254763
0.11075
0.339479
0.445367
0.465595
0.44434
0.412755
0.379366
0.347457
0.3182
0.291642
0.26729
0.24396
0.220718
0.197381
0.174654
0.15378
0.135907
0.121086
0.108234
0.0965899
0.0857748
0.0760925
0.068153
0.0621713
0.0577236
0.0540737
0.0505218
0.0466388
0.0422519
0.037394
0.0321468
0.0266613
0.0209193
0.0151928
0.00900736
0.00194733
0.382
0.31244
0.228884
0.200893
0.210568
0.229905
0.248384
0.26602
0.285074
0.307956
0.336918
0.373644
0.419503
0.476392
0.5465
0.631272
0.730405
0.834086
0.908744
0.882833
0.682483
0.323636
-0.0932529
-0.412458
-0.637609
-0.790251
-0.888234
-1.00216
-1.09188
-1.2539
-1.59104
-1.82646
-1.91202
-1.9526
-1.97348
-1.98067
-1.97528
-1.93113
-1.8351
-1.5914
-1.33288
-1.32014
-1.4521
-1.69789
-1.90428
-2.23314
-2.62189
-2.99992
-3.15976
-3.16952
-3.11313
-2.99719
-2.87918
-2.77235
-2.69193
-2.55862
-2.34261
-2.01477
-1.42946
-1.12556
-1.3189
-1.46554
-1.55814
-1.6095
-1.66722
-1.69161
-1.6929
-1.66404
-1.6409
-1.62964
-1.62422
-1.62187
-1.62011
-1.61822
-1.6152
-1.6096
-1.59764
-1.49689
-1.20858
-0.692401
-0.165242
0.22289
0.451952
0.539659
0.535057
0.493511
0.446527
0.402433
0.363338
0.330151
0.302401
0.278106
0.25452
0.230027
0.204684
0.179936
0.157611
0.138863
0.123616
0.11044
0.0981675
0.0865906
0.0761305
0.0676343
0.0614635
0.0571506
0.0537972
0.0505494
0.0468927
0.0426289
0.0378083
0.0325372
0.0270013
0.0211749
0.0153987
0.00906296
0.00211382
0.386554
0.316953
0.233573
0.206161
0.216459
0.236503
0.255965
0.274902
0.295598
0.320614
0.352276
0.392517
0.443018
0.506054
0.584629
0.681302
0.797814
0.926704
1.03581
1.02987
0.814553
0.435781
0.110594
-0.143789
-0.336642
-0.496772
-0.665481
-0.927567
-1.27738
-1.7082
-2.11693
-2.16606
-2.1468
-2.15783
-2.19029
-2.20782
-2.22236
-2.20171
-2.11465
-1.8014
-1.38193
-1.44275
-1.66862
-1.99976
-2.27584
-2.71308
-3.19046
-3.56724
-3.59726
-3.48969
-3.31184
-3.14175
-3.01117
-2.90627
-2.82791
-2.69421
-2.47706
-2.18947
-1.87049
-1.90782
-1.97516
-1.95281
-1.88632
-1.84117
-1.77058
-1.68511
-1.59715
-1.52588
-1.51369
-1.52843
-1.551
-1.57071
-1.58278
-1.59824
-1.59944
-1.58638
-1.53689
-1.4508
-1.15927
-0.627348
-0.0862129
0.312922
0.539092
0.611348
0.586222
0.528178
0.469295
0.417307
0.373864
0.339006
0.310926
0.286542
0.262316
0.236659
0.210094
0.18452
0.161855
0.14286
0.127392
0.113587
0.100334
0.0875771
0.076179
0.0670696
0.0606996
0.0565063
0.0534212
0.0504481
0.0469961
0.0428474
0.0380683
0.0327858
0.0272164
0.0213274
0.0155234
0.00906217
0.00224658
0.389705
0.320052
0.236789
0.20981
0.220532
0.241066
0.261217
0.28107
0.302913
0.329424
0.362987
0.405684
0.459433
0.526765
0.611216
0.716128
0.844685
0.991489
1.12547
1.13542
0.919725
0.609854
0.416277
0.188309
-0.0372982
-0.289751
-0.680128
-1.3611
-2.00951
-2.30647
-2.44684
-2.29776
-2.21688
-2.18764
-2.1922
-2.20307
-2.22246
-2.21551
-2.17245
-1.83256
-1.43403
-1.48803
-1.73761
-2.21396
-2.63156
-3.19644
-3.69745
-3.96825
-3.84676
-3.63412
-3.37876
-3.16555
-2.99743
-2.86468
-2.77502
-2.66622
-2.53672
-2.4094
-2.39779
-2.33624
-2.10276
-1.80597
-1.5694
-1.47337
-1.40758
-1.3754
-1.33771
-1.3299
-1.37983
-1.44091
-1.50516
-1.5607
-1.59599
-1.63132
-1.64183
-1.65706
-1.65232
-1.55106
-1.18996
-0.60541
-0.0384717
0.3749
0.601302
0.662478
0.622252
0.552081
0.485207
0.428611
0.383248
0.347709
0.3192
0.294073
0.26855
0.241551
0.214092
0.18827
0.165788
0.146761
0.131046
0.116542
0.102142
0.0882308
0.0759759
0.0663902
0.059918
0.0558704
0.053034
0.0503
0.0470218
0.0429711
0.0382297
0.0329422
0.0273505
0.0214158
0.0155966
0.00903363
0.00234968
0.392157
0.322466
0.239302
0.212661
0.223709
0.244632
0.265325
0.2859
0.308648
0.336332
0.371398
0.416025
0.472322
0.54302
0.632042
0.743333
0.881166
1.04192
1.1949
1.21934
1.01727
0.812745
0.791197
0.586734
0.285577
-0.640541
-1.53959
-2.18536
-2.6946
-2.54921
-2.43204
-2.30062
-2.24289
-2.21743
-2.22599
-2.23957
-2.26646
-2.2629
-2.21659
-1.91018
-1.52698
-1.5608
-1.87116
-2.61849
-3.18977
-3.59038
-3.93785
-3.79249
-3.64118
-3.55172
-3.34751
-3.11919
-2.95633
-2.8119
-2.69178
-2.59284
-2.55697
-2.64089
-2.80579
-2.42334
-1.87205
-1.37357
-1.21763
-1.22278
-1.30808
-1.45585
-1.49291
-1.49363
-1.541
-1.62166
-1.72221
-1.8306
-1.91376
-1.96633
-1.95568
-1.96989
-1.94631
-1.75824
-1.26866
-0.609232
-0.0101893
0.419704
0.648845
0.702023
0.650207
0.57106
0.498707
0.439176
0.392779
0.356645
0.327349
0.301023
0.273964
0.245669
0.217533
0.191583
0.169331
0.150272
0.134292
0.11899
0.103491
0.0885524
0.0755756
0.0656421
0.059141
0.0552586
0.0526578
0.0501388
0.0470133
0.0430482
0.0383406
0.0330511
0.0274431
0.0214723
0.0156431
0.00899431
0.00243359
0.393941
0.324239
0.241136
0.214729
0.226023
0.247244
0.268334
0.289439
0.312853
0.341399
0.377572
0.423619
0.481781
0.554934
0.647264
0.763112
0.907486
1.07802
1.24414
1.27992
1.09897
0.996813
1.14573
1.12002
1.01616
-1.04565
-3.88987
-2.40966
-2.79512
-2.43363
-2.4275
-2.29661
-2.24193
-2.2234
-2.22373
-2.2306
-2.26465
-2.27018
-2.256
-2.0005
-1.64136
-1.70785
-2.00005
-3.1186
-4.33097
-3.66273
-3.99179
-3.79138
-3.67183
-3.54057
-3.31975
-3.07987
-2.99298
-3.05176
-2.67334
-2.49037
-2.55187
-2.81801
-2.95619
-2.26018
-1.4216
-0.865799
-1.19927
-1.91941
-1.59369
-1.61877
-1.56332
-1.51866
-1.55719
-1.64623
-1.77931
-2.0336
-2.29628
-2.20439
-2.22138
-2.31551
-2.30793
-2.02664
-1.38203
-0.636225
-0.00122816
0.446988
0.681447
0.73038
0.670622
0.585855
0.510155
0.448878
0.401803
0.364938
0.33462
0.306869
0.278331
0.248956
0.220328
0.194335
0.172178
0.153048
0.136666
0.120657
0.104273
0.0885397
0.0750425
0.0648989
0.0584297
0.0547159
0.0523231
0.0499838
0.0469824
0.0430863
0.0384066
0.0331172
0.0274985
0.0215015
0.0156668
0.00895152
0.00249382
0.395093
0.325415
0.242371
0.216078
0.227534
0.248961
0.270316
0.291769
0.315623
0.344736
0.381639
0.428623
0.488011
0.562774
0.657263
0.776067
0.924642
1.10142
1.27593
1.31816
1.15253
1.12373
1.38562
1.54756
1.65326
0.449646
-2.22696
-2.27036
-2.27403
-2.28962
-2.06863
-1.79306
-1.86558
-2.05898
-2.735
-2.44633
-2.39206
-2.54088
-2.92199
-2.99198
-2.08354
-1.07209
-0.495305
-0.770822
-2.65241
-2.27609
-2.34963
-2.51044
-2.54443
-2.22499
-1.47464
-0.664113
-0.000680155
0.462342
0.701908
0.748563
0.684121
0.596045
0.51834
0.455965
0.408398
0.370945
0.3398
0.310944
0.281339
0.2512
0.222231
0.196238
0.174043
0.154824
0.138123
0.121623
0.104671
0.0884317
0.074612
0.0643509
0.0579199
0.0543307
0.0520845
0.0498694
0.0469529
0.0431039
0.0384435
0.033155
0.0275297
0.0215164
0.0156775
0.00891943
0.00253239
0.396767
0.327169
0.244243
0.218056
0.229752
0.251498
0.273253
0.29522
0.319727
0.349681
0.387666
0.436037
0.497241
0.574382
0.672039
0.795166
0.949827
1.13567
1.32247
1.37333
1.23928
1.32419
1.74884
2.15795
2.44178
2.12971
-2.22686
-2.28012
-2.29457
-2.37466
-2.20944
-2.06199
-2.07181
-2.09749
-2.30552
-2.33985
-2.32655
-2.53644
-3.03786
-2.9487
-1.72809
-0.544985
-0.0605665
-0.266949
-2.29141
-2.31695
-2.49208
-2.73115
-2.86253
-2.52273
-1.63011
-0.719403
-0.00784789
0.480948
0.730672
0.775013
0.704508
0.612154
0.531763
0.467791
0.419397
0.380803
0.34818
0.317415
0.286156
0.254804
0.225524
0.199342
0.176905
0.157403
0.140116
0.122849
0.105073
0.0881209
0.0738592
0.0634561
0.0571061
0.0537206
0.0517047
0.0496816
0.046895
0.0431181
0.0384878
0.033202
0.0275678
0.0215319
0.0156855
0.00886586
0.00258774
0.398921
0.329453
0.246669
0.220597
0.232611
0.254784
0.277062
0.299695
0.325055
0.356102
0.395493
0.445668
0.509217
0.589408
0.691083
0.819587
0.981622
1.17825
1.38002
1.44381
1.36266
1.57779
2.17627
2.78411
3.2131
3.14242
-2.24914
-2.31937
-2.37496
-2.5051
-2.41955
-2.31014
-2.24984
-2.05632
-2.05912
-2.23318
-2.25331
-2.56295
-3.11746
-2.72678
-1.1856
0.0436837
0.260348
-0.00468609
-2.4677
-2.48698
-2.65499
-2.90995
-3.12287
-2.82505
-1.82748
-0.817137
-0.0390053
0.49308
0.762866
0.808476
0.733076
0.636466
0.552948
0.486828
0.436445
0.395788
0.360525
0.326923
0.293373
0.26077
0.230765
0.204206
0.180983
0.160606
0.142179
0.12375
0.104966
0.0872409
0.0725507
0.0620781
0.0559043
0.0528332
0.0511462
0.0493874
0.046777
0.0430978
0.0385102
0.0332321
0.0275906
0.021528
0.0156761
0.00877123
0.00265753
0.40152
0.332209
0.249609
0.223676
0.236066
0.25876
0.281679
0.305123
0.331521
0.363897
0.404996
0.45736
0.523739
0.607581
0.71399
0.84868
1.0189
1.22698
1.4448
1.52708
1.50308
1.84095
2.57951
3.31347
3.82046
3.84334
-2.30624
-2.35702
-2.44796
-2.54309
-2.50884
-2.44337
-2.32341
-1.93615
-1.80785
-2.05503
-2.10647
-2.53165
-3.05652
-2.3506
-0.616556
0.525602
0.38174
0.0533143
-2.48683
-2.5892
-2.78145
-3.02285
-3.28243
-3.01648
-2.01467
-0.951082
-0.097676
0.495544
0.795959
0.847552
0.769483
0.670211
0.583632
0.514478
0.460633
0.41634
0.377127
0.339728
0.303306
0.269084
0.238315
0.210944
0.186277
0.164258
0.144053
0.124147
0.10425
0.0857804
0.0707133
0.0602544
0.0543423
0.0516774
0.0503999
0.048967
0.0465728
0.0430152
0.0384847
0.0332229
0.0275803
0.0214899
0.0156381
0.00861894
0.00274709
0.404993
0.335837
0.253466
0.22779
0.240666
0.26404
0.287822
0.312354
0.340144
0.374301
0.417678
0.472957
0.543072
0.631665
0.744077
0.886216
1.06553
1.28491
1.51957
1.63092
1.65051
2.05204
2.85843
3.65064
4.1968
4.2388
-2.32662
-2.31685
-2.32867
-2.35892
-2.3713
-2.30817
-2.12661
-1.61813
-1.35234
-1.58765
-1.6858
-2.11201
-2.62389
-2.0156
-0.415876
0.535958
0.12198
-0.143356
-2.40828
-2.53949
-2.664
-2.83966
-3.11063
-2.97573
-2.10773
-1.10472
-0.202067
0.455703
0.801953
0.877123
0.812571
0.720026
0.633227
0.560137
0.50019
0.449273
0.403355
0.359879
0.319055
0.282342
0.250222
0.220873
0.193563
0.168867
0.146134
0.124032
0.102679
0.0834511
0.0680485
0.0577611
0.0522262
0.0500596
0.049287
0.0482609
0.0461441
0.0427524
0.0383142
0.0330963
0.0274753
0.0213598
0.0155295
0.00831935
0.00289388
0.40825
0.339129
0.25693
0.231623
0.244945
0.268915
0.293493
0.319044
0.348133
0.383946
0.429433
0.487401
0.560921
0.653754
0.771321
0.919313
1.10455
1.32893
1.57222
1.71347
1.7206
2.03485
2.77351
3.55365
4.12667
4.18134
-2.24925
-2.23266
-2.20847
-2.24501
-2.12826
-1.87324
-1.6854
-1.23754
-0.820738
-1.15207
-1.29549
-1.65382
-2.20246
-1.88078
-0.537741
0.15977
-0.486754
-0.693641
-2.53368
-2.59578
-2.60827
-2.65685
-2.7457
-2.58639
-1.96493
-1.11792
-0.275113
0.379828
0.759378
0.877972
0.851234
0.773216
0.688633
0.610391
0.542696
0.483684
0.429859
0.379216
0.333068
0.29283
0.257855
0.226055
0.196963
0.171025
0.147406
0.124295
0.102065
0.0821475
0.0664242
0.0560282
0.0506017
0.0486789
0.0481829
0.0474028
0.0454865
0.042246
0.0379225
0.032785
0.0272234
0.0211046
0.0153328
0.00787836
0.00307252
0.410445
0.341298
0.259199
0.234198
0.247809
0.272164
0.297273
0.323509
0.353469
0.39039
0.437287
0.497042
0.572807
0.668401
0.789222
0.940679
1.12874
1.35388
1.59746
1.76349
1.75528
1.92648
2.49962
3.17231
3.72554
3.73972
-2.35992
-2.30588
-2.25081
-2.1918
-1.89402
-1.44929
-1.34293
-1.10141
-0.634604
-1.04989
-1.21598
-1.51726
-2.04021
-1.87564
-0.817003
-0.439933
-1.1625
-1.30903
-2.61247
-2.6477
-2.64482
-2.64716
-2.63909
-2.44002
-1.83128
-1.08049
-0.313965
0.325213
0.728277
0.885281
0.88746
0.818224
0.731782
0.647328
0.572636
0.506857
0.446488
0.39032
0.340317
0.297331
0.260213
0.227222
0.197626
0.172
0.148426
0.125183
0.102555
0.082147
0.0659353
0.0552402
0.0497105
0.0478288
0.0474318
0.0467566
0.0449482
0.0418055
0.0375674
0.032496
0.0269875
0.0208728
0.0151574
0.00750505
0.00321728
0.412114
0.342939
0.26092
0.236163
0.249988
0.274633
0.300148
0.32691
0.357534
0.3953
0.443269
0.504389
0.581842
0.679508
0.80273
0.95665
1.14641
1.3711
1.61155
1.79372
1.78675
1.81756
2.17596
2.64587
3.07738
2.90352
-2.29825
-2.28215
-2.21113
-2.04525
-1.63871
-1.17836
-1.1452
-1.08343
-0.671045
-1.13622
-1.28532
-1.52629
-2.00119
-1.96398
-1.24513
-1.13051
-1.79653
-1.90383
-2.64878
-2.6505
-2.62121
-2.62653
-2.58024
-2.35524
-1.78799
-1.06208
-0.342156
0.285988
0.713388
0.901614
0.92097
0.855668
0.765256
0.674698
0.594035
0.522696
0.457347
0.397411
0.345027
0.300462
0.262196
0.228523
0.19885
0.173149
0.149519
0.126167
0.103246
0.0824144
0.0657884
0.0547846
0.0491164
0.0472221
0.0468687
0.0462444
0.0444983
0.041425
0.0372527
0.0322354
0.0267727
0.0206651
0.0149986
0.00718573
0.00333088
0.413296
0.344113
0.262136
0.237546
0.251532
0.276391
0.302193
0.329327
0.360423
0.39879
0.447521
0.509606
0.588254
0.687372
0.812258
0.967829
1.15857
1.38244
1.61912
1.80718
1.82016
1.75543
1.89595
2.07608
2.34373
1.18975
-2.83446
-2.19969
-2.01764
-1.81491
-1.42298
-1.09646
-1.06737
-1.04524
-0.708064
-1.34232
-1.41814
-1.59567
-2.01597
-2.07565
-1.62903
-1.63935