/*--------------------------------*- C++ -*----------------------------------*\
| =========                 |                                                 |
| \\      /  F ield         | OpenFOAM: The Open Source CFD Toolbox           |
|  \\    /   O peration     | Version:  v2006                                 |
|   \\  /    A nd           | Website:  www.openfoam.com                      |
|    \\/     M anipulation  |                                                 |
\*---------------------------------------------------------------------------*/
FoamFile
{
    version     2.0;
    format      ascii;
    class       volScalarField;
    location    "0.49";
    object      p;
}
// * * * * * * * * * * * * * * * * * * * * * * * * * * * * * * * * * * * * * //

dimensions      [0 2 -2 0 0 0 0];


internalField   nonuniform List<scalar> 
374400
(
-12.1704
-12.1449
-12.0858
-11.9772
-11.8481
-11.7131
-11.5822
-11.4575
-11.3366
-11.2171
-11.0981
-10.9792
-10.8599
-10.74
-10.6192
-10.4978
-10.3761
-10.2544
-10.1395
-10.0378
-9.9562
-9.89465
-9.84643
-9.81171
-9.78382
-9.76265
-9.74847
-9.72728
-9.69915
-9.66385
-9.61439
-9.56466
-9.52886
-9.50012
-9.47831
-9.46368
-9.44184
-9.41286
-9.37649
-9.32547
-9.27408
-9.23701
-9.20724
-9.18464
-9.16949
-9.14688
-9.1169
-9.07926
-9.04142
-9.01099
-8.9729
-8.93457
-8.90373
-8.8803
-8.86459
-8.84114
-8.81
-8.77088
-8.71595
-8.66055
-8.62056
-8.58843
-8.56402
-8.54766
-8.52322
-8.49075
-8.44994
-8.39263
-8.33485
-8.29319
-8.25973
-8.23434
-8.21733
-8.19193
-8.15816
-8.11576
-8.05626
-7.97089
-7.85063
-7.69517
-7.51343
-7.31519
-7.10227
-6.87659
-6.64755
-6.42285
-6.20194
-5.98436
-5.76961
-5.55726
-5.34697
-5.13851
-4.93159
-4.72597
-4.52143
-4.31778
-4.11485
-3.91248
-3.71055
-3.50899
-3.30771
-3.10663
-2.90572
-2.70494
-2.50426
-2.30365
-2.1031
-1.90262
-1.70218
-1.50178
-1.30143
-1.10111
-0.900826
-0.700578
-0.500344
-0.300033
-0.101482
-12.168
-12.1424
-12.0833
-11.9747
-11.8455
-11.7105
-11.5796
-11.4548
-11.3339
-11.2144
-11.0955
-10.9765
-10.8574
-10.7377
-10.6172
-10.4961
-10.3748
-10.2536
-10.1393
-10.0382
-9.95698
-9.8958
-9.84787
-9.81335
-9.78563
-9.76459
-9.75049
-9.72942
-9.70146
-9.66636
-9.61719
-9.56774
-9.53214
-9.50355
-9.48185
-9.4673
-9.44557
-9.41674
-9.38055
-9.32977
-9.27859
-9.24167
-9.21202
-9.1895
-9.1744
-9.15187
-9.12198
-9.08445
-9.04672
-9.01636
-8.97835
-8.94009
-8.9093
-8.88589
-8.8702
-8.84677
-8.81566
-8.77657
-8.72166
-8.66626
-8.62625
-8.59409
-8.56966
-8.55328
-8.52882
-8.4963
-8.45544
-8.39803
-8.34014
-8.29839
-8.26484
-8.23938
-8.22233
-8.19686
-8.163
-8.12047
-8.06077
-7.97513
-7.85443
-7.69838
-7.51591
-7.31686
-7.10311
-6.87664
-6.64695
-6.42179
-6.20058
-5.98284
-5.76803
-5.55569
-5.34548
-5.13712
-4.93033
-4.72485
-4.52045
-4.31693
-4.11412
-3.91187
-3.71005
-3.50857
-3.30737
-3.10635
-2.90549
-2.70476
-2.50411
-2.30352
-2.103
-1.90253
-1.7021
-1.50172
-1.30137
-1.10107
-0.90079
-0.700551
-0.500323
-0.300019
-0.10148
-12.163
-12.1375
-12.0784
-11.9697
-11.8404
-11.7053
-11.5743
-11.4494
-11.3284
-11.2089
-11.09
-10.9712
-10.8521
-10.7329
-10.6129
-10.4925
-10.372
-10.2519
-10.1387
-10.0387
-9.95852
-9.8981
-9.85077
-9.81668
-9.7893
-9.76852
-9.75459
-9.73379
-9.70618
-9.67152
-9.62295
-9.57408
-9.53889
-9.51062
-9.48916
-9.47477
-9.45327
-9.42475
-9.38891
-9.33862
-9.2879
-9.25128
-9.22185
-9.1995
-9.18451
-9.16213
-9.13243
-9.09513
-9.0576
-9.02738
-8.98954
-8.95142
-8.92071
-8.89736
-8.8817
-8.85832
-8.82726
-8.78821
-8.73332
-8.67788
-8.63782
-8.60561
-8.58113
-8.56471
-8.54019
-8.50758
-8.46659
-8.40896
-8.3508
-8.30883
-8.27511
-8.24952
-8.23237
-8.20676
-8.1727
-8.12991
-8.06983
-7.9836
-7.862
-7.70471
-7.52073
-7.32004
-7.10461
-6.87658
-6.64563
-6.41954
-6.19773
-5.97966
-5.76472
-5.55242
-5.34236
-5.13422
-4.9277
-4.72251
-4.51839
-4.31516
-4.11261
-3.9106
-3.70899
-3.5077
-3.30665
-3.10577
-2.90502
-2.70437
-2.50379
-2.30327
-2.10279
-1.90234
-1.70195
-1.50159
-1.30127
-1.10098
-0.900716
-0.70049
-0.500276
-0.299992
-0.10147
-12.1557
-12.1301
-12.0709
-11.9621
-11.8327
-11.6974
-11.5662
-11.4412
-11.32
-11.2004
-11.0815
-10.9628
-10.8442
-10.7253
-10.606
-10.4864
-10.3673
-10.2488
-10.1374
-10.0392
-9.96061
-9.90142
-9.85507
-9.8217
-9.79489
-9.77454
-9.7609
-9.74053
-9.71349
-9.67955
-9.63198
-9.58411
-9.54959
-9.52186
-9.5008
-9.48666
-9.46555
-9.43753
-9.40231
-9.35284
-9.30288
-9.26678
-9.23775
-9.21567
-9.20086
-9.17874
-9.14937
-9.11245
-9.07526
-9.04529
-9.00771
-8.96982
-8.93928
-8.91603
-8.90043
-8.87712
-8.84615
-8.80717
-8.75232
-8.69685
-8.65671
-8.6244
-8.59983
-8.58335
-8.55872
-8.52595
-8.48472
-8.42673
-8.36815
-8.32583
-8.2918
-8.26597
-8.24865
-8.22278
-8.18835
-8.1451
-8.08433
-7.99706
-7.87394
-7.71458
-7.5281
-7.32474
-7.10663
-6.87615
-6.64325
-6.4158
-6.19315
-5.97465
-5.75961
-5.54744
-5.33766
-5.12991
-4.92382
-4.71908
-4.51541
-4.31259
-4.11043
-3.90877
-3.70748
-3.50646
-3.30563
-3.10495
-2.90436
-2.70383
-2.50335
-2.3029
-2.10248
-1.90209
-1.70172
-1.5014
-1.30111
-1.10084
-0.900603
-0.7004
-0.500214
-0.299954
-0.101455
-12.146
-12.1203
-12.061
-11.952
-11.8223
-11.6867
-11.5552
-11.4298
-11.3083
-11.1884
-11.0694
-10.9507
-10.8324
-10.714
-10.5955
-10.4772
-10.3598
-10.2435
-10.1346
-10.0391
-9.96285
-9.9055
-9.86061
-9.8283
-9.80235
-9.78265
-9.76944
-9.74972
-9.72355
-9.6907
-9.64463
-9.59822
-9.56473
-9.53781
-9.51734
-9.5036
-9.48307
-9.45581
-9.42151
-9.37325
-9.32442
-9.28906
-9.26059
-9.23891
-9.22436
-9.20262
-9.17372
-9.13735
-9.10062
-9.07099
-9.03379
-8.9962
-8.96585
-8.94273
-8.9272
-8.904
-8.87312
-8.83422
-8.77936
-8.72372
-8.68339
-8.65091
-8.62619
-8.60961
-8.58482
-8.55179
-8.5102
-8.4516
-8.39229
-8.3494
-8.31491
-8.28872
-8.27117
-8.24495
-8.21001
-8.1661
-8.10435
-8.01559
-7.89024
-7.72783
-7.53768
-7.33043
-7.10852
-6.87464
-6.63911
-6.40988
-6.18618
-5.96721
-5.75212
-5.54021
-5.33091
-5.12374
-4.9183
-4.71422
-4.51121
-4.30902
-4.10743
-3.90628
-3.70543
-3.50479
-3.30428
-3.10386
-2.90348
-2.70313
-2.50278
-2.30243
-2.10208
-1.90175
-1.70144
-1.50115
-1.30089
-1.10066
-0.900454
-0.700281
-0.500128
-0.299904
-0.101438
-12.1339
-12.1082
-12.0487
-11.9394
-11.8093
-11.6731
-11.541
-11.4151
-11.293
-11.1727
-11.0532
-10.9343
-10.816
-10.698
-10.5803
-10.4635
-10.3481
-10.2347
-10.1293
-10.0375
-9.9646
-9.90992
-9.86719
-9.83645
-9.81176
-9.79303
-9.78046
-9.76169
-9.73682
-9.70557
-9.66176
-9.61757
-9.58564
-9.55993
-9.54035
-9.5272
-9.50754
-9.48142
-9.4485
-9.40208
-9.35498
-9.32078
-9.29317
-9.27211
-9.25795
-9.23677
-9.2086
-9.17306
-9.13706
-9.10795
-9.07134
-9.03425
-9.00424
-8.98131
-8.96589
-8.94283
-8.9121
-8.87332
-8.81851
-8.76276
-8.72223
-8.6895
-8.66454
-8.64778
-8.62269
-8.58924
-8.54709
-8.4876
-8.42729
-8.38359
-8.34837
-8.32159
-8.30363
-8.27675
-8.24096
-8.19593
-8.13256
-8.04141
-7.91258
-7.74555
-7.55
-7.33714
-7.10987
-6.87138
-6.63246
-6.40113
-6.17635
-5.95704
-5.74216
-5.5308
-5.32226
-5.11597
-4.91145
-4.70828
-4.50613
-4.30472
-4.10384
-3.90332
-3.70302
-3.50284
-3.30272
-3.10262
-2.90249
-2.70233
-2.50213
-2.30188
-2.10162
-1.90135
-1.70109
-1.50084
-1.30062
-1.10043
-0.90027
-0.700137
-0.500018
-0.299842
-0.101414
-12.1196
-12.0938
-12.0339
-11.9242
-11.7935
-11.6566
-11.5237
-11.3968
-11.2738
-11.1524
-11.0322
-10.9125
-10.7937
-10.6758
-10.5588
-10.4433
-10.3304
-10.2204
-10.1196
-10.0328
-9.96458
-9.91371
-9.87408
-9.8456
-9.82276
-9.80542
-9.79379
-9.77644
-9.75345
-9.72457
-9.68405
-9.6431
-9.61342
-9.58948
-9.5712
-9.55889
-9.5405
-9.51602
-9.48508
-9.44131
-9.39662
-9.36397
-9.33755
-9.31731
-9.30368
-9.28328
-9.25606
-9.2216
-9.18652
-9.15804
-9.12212
-9.08553
-9.05584
-9.03309
-9.01779
-8.99487
-8.96423
-8.92544
-8.87037
-8.814
-8.77289
-8.73968
-8.71432
-8.6973
-8.67183
-8.63775
-8.59469
-8.53375
-8.47168
-8.42666
-8.39041
-8.36285
-8.34438
-8.31676
-8.27987
-8.23342
-8.16796
-8.07366
-7.94009
-7.76665
-7.5636
-7.34312
-7.10881
-6.86453
-6.62162
-6.388
-6.16224
-5.94289
-5.72858
-5.51818
-5.31082
-5.1058
-4.90255
-4.70063
-4.49966
-4.29933
-4.09941
-3.89973
-3.70014
-3.50055
-3.30092
-3.10121
-2.90139
-2.70145
-2.50141
-2.30129
-2.10111
-1.9009
-1.70069
-1.50048
-1.30031
-1.10016
-0.900046
-0.699963
-0.499893
-0.299767
-0.101384
-12.1033
-12.0772
-12.017
-11.9066
-11.7751
-11.6371
-11.5029
-11.3746
-11.25
-11.1271
-11.005
-10.8841
-10.7642
-10.6455
-10.5285
-10.4139
-10.3033
-10.1973
-10.1022
-10.0222
-9.96061
-9.91528
-9.88023
-9.85515
-9.83507
-9.81982
-9.80959
-9.79436
-9.77423
-9.74893
-9.71342
-9.67741
-9.65116
-9.62989
-9.61357
-9.60255
-9.58606
-9.56406
-9.53613
-9.49638
-9.45537
-9.42513
-9.40051
-9.38156
-9.36874
-9.34953
-9.32379
-9.29105
-9.25747
-9.23006
-9.19531
-9.15972
-9.13068
-9.1083
-9.09319
-9.07051
-9.04011
-9.0015
-8.94644
-8.88979
-8.84819
-8.81437
-8.78845
-8.77097
-8.74475
-8.70968
-8.66528
-8.6023
-8.53802
-8.49116
-8.45321
-8.42426
-8.40481
-8.37565
-8.33673
-8.28769
-8.21851
-8.11878
-7.97752
-7.79413
-7.57984
-7.3483
-7.10432
-6.85265
-6.60514
-6.36934
-6.1431
-5.92434
-5.7113
-5.50251
-5.2969
-5.09367
-4.89214
-4.69183
-4.49232
-4.2933
-4.09453
-3.89581
-3.69705
-3.49815
-3.29906
-3.09979
-2.90028
-2.70057
-2.50069
-2.30067
-2.10055
-1.9004
-1.70022
-1.50006
-1.29993
-1.09983
-0.89977
-0.699746
-0.499733
-0.29968
-0.101337
-12.0853
-12.0589
-11.9982
-11.8869
-11.7542
-11.6148
-11.4788
-11.3484
-11.2215
-11.0961
-10.9714
-10.8478
-10.7253
-10.6045
-10.486
-10.3712
-10.2621
-10.1602
-10.0719
-10.0009
-9.94856
-9.9113
-9.88307
-9.86308
-9.84717
-9.83513
-9.82706
-9.81509
-9.79933
-9.77953
-9.75171
-9.72323
-9.70216
-9.68492
-9.67153
-9.66242
-9.64876
-9.63045
-9.60694
-9.57295
-9.53698
-9.50997
-9.48774
-9.47044
-9.45868
-9.44096
-9.41703
-9.3863
-9.35431
-9.32795
-9.29426
-9.25928
-9.23052
-9.2082
-9.19312
-9.17043
-9.13976
-9.10053
-9.044
-8.98506
-8.94165
-8.90645
-8.87948
-8.86138
-8.83423
-8.79761
-8.75111
-8.68475
-8.61646
-8.5667
-8.52658
-8.49604
-8.47559
-8.44496
-8.40384
-8.35193
-8.27848
-8.1722
-8.02094
-7.82397
-7.59418
-7.34787
-7.09172
-6.83151
-6.57935
-6.34203
-6.11634
-5.89937
-5.68865
-5.48245
-5.2794
-5.07858
-4.87934
-4.68116
-4.48358
-4.28625
-4.08892
-3.89143
-3.69368
-3.49561
-3.29718
-3.09839
-2.89925
-2.69978
-2.50003
-2.30008
-2.1
-1.89986
-1.69971
-1.49958
-1.29949
-1.09945
-0.899445
-0.699491
-0.499551
-0.29959
-0.101278
-12.0667
-12.04
-11.9785
-11.8662
-11.732
-11.5907
-11.4524
-11.3193
-11.1893
-11.0602
-10.9316
-10.8039
-10.6768
-10.5515
-10.4291
-10.3116
-10.2017
-10.1024
-10.0213
-9.96134
-9.92191
-9.89652
-9.87865
-9.86654
-9.85712
-9.85004
-9.84529
-9.83836
-9.82941
-9.81815
-9.80224
-9.7851
-9.77174
-9.76042
-9.7513
-9.745
-9.7355
-9.72248
-9.70526
-9.6794
-9.65076
-9.62842
-9.60972
-9.59496
-9.58485
-9.56955
-9.54863
-9.52136
-9.49242
-9.46824
-9.43692
-9.40386
-9.37633
-9.35469
-9.33992
-9.31758
-9.28728
-9.24826
-9.19166
-9.13232
-9.08806
-9.05164
-9.02344
-9.00429
-8.97542
-8.9367
-8.88738
-8.81677
-8.74391
-8.69009
-8.64607
-8.6123
-8.58952
-8.55523
-8.50935
-8.45136
-8.36925
-8.2504
-8.08143
-7.86172
-7.60746
-7.33972
-7.06805
-6.79873
-6.54294
-6.30563
-6.08214
-5.86844
-5.66123
-5.45858
-5.25898
-5.06137
-4.86507
-4.66952
-4.47425
-4.27889
-4.08322
-3.88709
-3.69045
-3.49326
-3.29553
-3.09725
-2.89844
-2.69915
-2.49947
-2.29952
-2.09942
-1.89927
-1.69912
-1.49902
-1.29897
-1.09899
-0.899052
-0.699179
-0.499319
-0.299483
-0.101186
-12.0489
-12.0218
-11.9596
-11.8461
-11.7102
-11.5667
-11.4257
-11.2894
-11.1555
-11.022
-10.8882
-10.7542
-10.6207
-10.4882
-10.3584
-10.234
-10.119
-10.0183
-9.94211
-9.89407
-9.87125
-9.86241
-9.85977
-9.85963
-9.86032
-9.86112
-9.86175
-9.86298
-9.86496
-9.86732
-9.8702
-9.87111
-9.86963
-9.86722
-9.86435
-9.86204
-9.85833
-9.8527
-9.84404
-9.82886
-9.80902
-9.79226
-9.77761
-9.76555
-9.75719
-9.7444
-9.72644
-9.70241
-9.67566
-9.65266
-9.62209
-9.58836
-9.55967
-9.53677
-9.52115
-9.49739
-9.46429
-9.421
-9.3569
-9.28842
-9.23799
-9.19748
-9.16671
-9.14631
-9.11584
-9.07419
-9.0213
-8.94575
-8.86745
-8.8102
-8.76409
-8.72881
-8.7052
-8.66972
-8.62122
-8.55924
-8.47012
-8.33885
-8.14878
-7.89929
-7.61247
-7.31752
-7.02785
-6.74968
-6.49233
-6.25818
-6.03987
-5.8318
-5.62997
-5.43212
-5.23679
-5.04298
-4.85001
-4.65741
-4.46473
-4.27158
-4.07769
-3.88302
-3.68756
-3.4913
-3.2943
-3.09653
-2.89803
-2.69885
-2.49915
-2.29912
-2.09892
-1.89869
-1.69851
-1.49842
-1.29841
-1.09849
-0.898619
-0.698833
-0.499058
-0.299374
-0.101083
-12.0326
-12.0051
-11.942
-11.8272
-11.6896
-11.5438
-11.3999
-11.26
-11.1219
-10.9831
-10.843
-10.7015
-10.559
-10.4162
-10.2747
-10.138
-10.0111
-9.90165
-9.82455
-9.78683
-9.78521
-9.80124
-9.82323
-9.84273
-9.85959
-9.87265
-9.88119
-9.89429
-9.91287
-9.93562
-9.9659
-9.9905
-10.0029
-10.0102
-10.0142
-10.0164
-10.0192
-10.021
-10.0205
-10.0149
-10.0043
-9.99436
-9.98601
-9.97944
-9.97478
-9.96739
-9.95664
-9.94131
-9.92213
-9.90373
-9.87723
-9.84606
-9.81821
-9.79527
-9.77918
-9.75406
-9.71908
-9.67322
-9.60526
-9.53493
-9.48375
-9.44205
-9.41001
-9.38804
-9.3549
-9.31134
-9.25566
-9.17498
-9.09066
-9.02702
-8.97374
-8.93274
-8.90487
-8.86264
-8.80583
-8.73323
-8.62838
-8.47281
-8.24431
-7.94226
-7.60304
-7.27226
-6.96603
-6.68446
-6.43048
-6.20238
-5.99111
-5.7901
-5.59466
-5.40247
-5.21221
-5.02289
-4.83386
-4.64472
-4.45504
-4.26437
-4.07244
-3.87928
-3.68502
-3.48975
-3.29347
-3.09622
-2.89796
-2.69879
-2.49895
-2.29872
-2.09835
-1.89801
-1.69778
-1.4977
-1.29773
-1.09788
-0.898099
-0.698417
-0.49874
-0.299224
-0.100942
-12.0182
-11.9902
-11.9262
-11.8101
-11.6708
-11.5226
-11.3758
-11.2324
-11.0896
-10.9453
-10.7983
-10.6482
-10.4951
-10.3392
-10.1818
-10.026
-9.87808
-9.74825
-9.65865
-9.62418
-9.64399
-9.68835
-9.73908
-9.7821
-9.81972
-9.85012
-9.87086
-9.9041
-9.9538
-10.0204
-10.1136
-10.1921
-10.2366
-10.2651
-10.2807
-10.2891
-10.2992
-10.3063
-10.3065
-10.2936
-10.2677
-10.2466
-10.2316
-10.2228
-10.2177
-10.2109
-10.2039
-10.1958
-10.1846
-10.1719
-10.1508
-10.1202
-10.0896
-10.0642
-10.046
-10.0168
-9.97322
-9.91307
-9.81536
-9.70257
-9.61993
-9.55516
-9.50773
-9.47715
-9.43293
-9.37682
-9.31406
-9.24548
-9.18315
-9.13689
-9.09922
-9.06939
-9.04848
-9.01564
-8.96804
-8.90266
-8.80016
-8.63339
-8.36566
-7.99446
-7.58478
-7.20714
-6.87911
-6.59517
-6.35055
-6.13511
-5.93634
-5.74607
-5.55898
-5.37337
-5.1884
-5.00355
-4.81836
-4.63263
-4.44596
-4.25779
-4.06777
-3.87603
-3.68291
-3.48859
-3.2931
-3.09638
-2.89834
-2.69909
-2.49898
-2.29843
-2.09779
-1.89728
-1.69698
-1.4969
-1.29699
-1.09722
-0.89753
-0.69796
-0.498382
-0.299043
-0.100771
-12.0065
-11.978
-11.9133
-11.796
-11.655
-11.5048
-11.3554
-11.2087
-11.0618
-10.9122
-10.7586
-10.6002
-10.4362
-10.2664
-10.0908
-9.91164
-9.73439
-9.571
-9.45289
-9.41236
-9.45457
-9.53756
-9.64365
-9.75382
-9.86331
-9.95961
-10.0278
-10.1325
-10.266
-10.4118
-10.5495
-10.6114
-10.6236
-10.6243
-10.6211
-10.6168
-10.6086
-10.5968
-10.5798
-10.5525
-10.5206
-10.5122
-10.5177
-10.5321
-10.5449
-10.566
-10.5965
-10.6322
-10.6433
-10.6331
-10.6031
-10.5497
-10.4946
-10.4435
-10.4068
-10.349
-10.2668
-10.1599
-10.0281
-9.95779
-9.922
-9.88768
-9.85926
-9.84108
-9.8132
-9.76912
-9.7
-9.58802
-9.47994
-9.40807
-9.35203
-9.30979
-9.28216
-9.24146
-9.18397
-9.10755
-8.98959
-8.79951
-8.48304
-8.02865
-7.53865
-7.11363
-6.77312
-6.49771
-6.26816
-6.06788
-5.88175
-5.70218
-5.52378
-5.34476
-5.16485
-4.98412
-4.80266
-4.62047
-4.43702
-4.25155
-4.06352
-3.87312
-3.6811
-3.48769
-3.29302
-3.09686
-2.89899
-2.69958
-2.49911
-2.29816
-2.09721
-1.89651
-1.69614
-1.49608
-1.29624
-1.09656
-0.896969
-0.697517
-0.498029
-0.298865
-0.100576
-11.998
-11.9692
-11.9037
-11.7855
-11.6433
-11.4915
-11.3401
-11.1907
-11.0406
-10.8868
-10.7278
-10.5625
-10.3896
-10.2078
-10.0162
-9.81501
-9.60764
-9.40532
-9.24635
-9.18616
-9.25783
-9.43204
-9.69133
-9.95079
-10.1615
-10.3037
-10.3922
-10.5049
-10.5976
-10.6695
-10.7636
-10.8276
-10.8399
-10.854
-10.8737
-10.8891
-10.9113
-10.9194
-10.8998
-10.8051
-10.6725
-10.6363
-10.6532
-10.6992
-10.7399
-10.8096
-10.9266
-11.0888
-11.1591
-11.1464
-11.0812
-10.9603
-10.8425
-10.747
-10.6811
-10.5807
-10.4327
-10.2242
-9.88302
-9.54724
-9.4338
-9.419
-9.44709
-9.47597
-9.52844
-9.60413
-9.68433
-9.73323
-9.72357
-9.6993
-9.66947
-9.63892
-9.61547
-9.57697
-9.51898
-9.43581
-9.29678
-9.05497
-8.63316
-8.04269
-7.45837
-6.99471
-6.65381
-6.39705
-6.19099
-6.00963
-5.83808
-5.66925
-5.49852
-5.32448
-5.14741
-4.9688
-4.78992
-4.61066
-4.42997
-4.24668
-4.06008
-3.87055
-3.67923
-3.48667
-3.29279
-3.09731
-2.89973
-2.70023
-2.49941
-2.29806
-2.09679
-1.8959
-1.69546
-1.49542
-1.29564
-1.09604
-0.896528
-0.697177
-0.49776
-0.298751
-0.10038
-11.9924
-11.9632
-11.8972
-11.7783
-11.6352
-11.4824
-11.3296
-11.1784
-11.0259
-10.8692
-10.7064
-10.5361
-10.3568
-10.1662
-9.9627
-9.745
-9.51372
-9.27819
-9.07856
-8.99337
-9.09816
-9.37814
-9.72909
-10.0017
-10.192
-10.3193
-10.4018
-10.4953
-10.5664
-10.7043
-10.9809
-11.1609
-11.2325
-11.2787
-11.3123
-11.326
-11.3317
-11.3064
-11.2205
-10.9264
-10.5272
-10.4328
-10.4969
-10.6941
-10.8785
-11.1946
-11.5665
-11.8803
-11.9031
-11.7957
-11.6084
-11.4213
-11.281
-11.1833
-11.1027
-10.9326
-10.5915
-10.1611
-9.90313
-9.99215
-10.0952
-10.1168
-10.0999
-10.0817
-10.0404
-9.96191
-9.85091
-9.71589
-9.60301
-9.52989
-9.47759
-9.44168
-9.41913
-9.38788
-9.34942
-9.29896
-9.20813
-9.02214
-8.61358
-7.98189
-7.36258
-6.8851
-6.5494
-6.31224
-6.12808
-5.96475
-5.80655
-5.64723
-5.48238
-5.31087
-5.13439
-4.9564
-4.77933
-4.60262
-4.42413
-4.24229
-4.05653
-3.86754
-3.67673
-3.48495
-3.29203
-3.09733
-2.9002
-2.70078
-2.49977
-2.29813
-2.09658
-1.89552
-1.69501
-1.49496
-1.29522
-1.09568
-0.89623
-0.69696
-0.497584
-0.298711
-0.10023
-11.9886
-11.9592
-11.8929
-11.7735
-11.6298
-11.4762
-11.3225
-11.17
-11.0159
-10.8571
-10.6917
-10.5181
-10.3342
-10.1377
-9.92598
-9.69675
-9.44864
-9.18887
-8.95705
-8.85492
-8.97729
-9.27311
-9.52885
-9.73299
-9.88556
-10.0211
-10.1767
-10.427
-10.7714
-11.1612
-11.4722
-11.4543
-11.4219
-11.4308
-11.4652
-11.4936
-11.5416
-11.5698
-11.5123
-11.1348
-10.6021
-10.4922
-10.6798
-11.0672
-11.3808
-11.8588
-12.2847
-12.4641
-12.2445
-11.9877
-11.6897
-11.4303
-11.2408
-11.1142
-11.0388
-10.9386
-10.8238
-10.7273
-10.7207
-10.6908
-10.5391
-10.3315
-10.1716
-10.0695
-9.91912
-9.75761
-9.61021
-9.48069
-9.3978
-9.35635
-9.33429
-9.32363
-9.31806
-9.31167
-9.29589
-9.27089
-9.22384
-9.0724
-8.63384
-7.95035
-7.29826
-6.80529
-6.47151
-6.24885
-6.08232
-5.93358
-5.78578
-5.63297
-5.47126
-5.30076
-5.12462
-4.94752
-4.77194
-4.59674
-4.41919
-4.23769
-4.05216
-3.86345
-3.67356
-3.48289
-3.29118
-3.09735
-2.90076
-2.70144
-2.50025
-2.29833
-2.09655
-1.89532
-1.69473
-1.49467
-1.29495
-1.09545
-0.896047
-0.696835
-0.497481
-0.298721
-0.100111
-11.986
-11.9565
-11.89
-11.7701
-11.626
-11.472
-11.3175
-11.1642
-11.009
-10.8487
-10.6815
-10.5055
-10.3185
-10.1178
-9.90038
-9.66319
-9.40344
-9.12653
-8.8722
-8.75719
-8.88112
-9.10719
-9.22678
-9.39116
-9.56559
-9.79317
-10.1648
-10.8287
-11.4833
-11.7368
-11.796
-11.5884
-11.4812
-11.4456
-11.4659
-11.4927
-11.5448
-11.5766
-11.5596
-11.163
-10.5519
-10.5708
-10.7716
-11.2532
-11.687
-12.321
-12.7772
-12.7559
-12.3752
-12.0668
-11.7009
-11.3994
-11.2273
-11.1359
-11.0816
-11.0278
-11.0449
-11.16
-11.2436
-10.8854
-10.4342
-9.99936
-9.72598
-9.61031
-9.51821
-9.44891
-9.38544
-9.32705
-9.29142
-9.28842
-9.30832
-9.33748
-9.359
-9.38578
-9.40158
-9.41822
-9.40291
-9.23127
-8.70411
-7.9508
-7.26354
-6.75268
-6.41722
-6.20381
-6.05037
-5.91187
-5.77052
-5.62102
-5.46086
-5.2913
-5.11629
-4.94076
-4.76665
-4.59237
-4.41497
-4.23325
-4.04776
-3.8597
-3.67065
-3.48122
-3.29066
-3.09763
-2.90143
-2.70213
-2.50076
-2.29859
-2.09659
-1.89522
-1.69457
-1.49449
-1.29478
-1.09531
-0.895935
-0.696764
-0.497421
-0.298753
-0.100019
-11.9839
-11.9544
-11.8876
-11.7675
-11.6231
-11.4687
-11.3137
-11.1597
-11.0035
-10.8421
-10.6735
-10.4956
-10.3061
-10.1022
-9.88034
-9.63698
-9.36828
-9.07805
-8.80703
-8.67946
-8.79182
-8.9154
-8.86227
-8.9953
-9.21519
-10.0568
-10.8951
-11.533
-12.0977
-11.9546
-11.7679
-11.5989
-11.5281
-11.4951
-11.5014
-11.5162
-11.5756
-11.6045
-11.5795
-11.2215
-10.6765
-10.6225
-10.8832
-11.6739
-12.2853
-12.7951
-12.9504
-12.5695
-12.2687
-12.0412
-11.6694
-11.3721
-11.2091
-11.1078
-11.0388
-11.0117
-11.1506
-11.4393
-11.4715
-10.7634
-9.99648
-9.45174
-9.2966
-9.29684
-9.39441
-9.51648
-9.53526
-9.46703
-9.40521
-9.40496
-9.43977
-9.50733
-9.5688
-9.62334
-9.64774
-9.68294
-9.66512
-9.43098
-8.78904
-7.96521
-7.24507
-6.71588
-6.37586
-6.1692
-6.02536
-5.8939
-5.75666
-5.60924
-5.45031
-5.28196
-5.1086
-4.93497
-4.76226
-4.58859
-4.41113
-4.22913
-4.04373
-3.85631
-3.66824
-3.47998
-3.29046
-3.0981
-2.90215
-2.70282
-2.50125
-2.29885
-2.09666
-1.89517
-1.69446
-1.49436
-1.29466
-1.09522
-0.895859
-0.696721
-0.497384
-0.298794
-0.0999444
-11.9824
-11.9528
-11.886
-11.7656
-11.621
-11.4662
-11.3109
-11.1563
-10.9995
-10.8373
-10.6676
-10.4883
-10.2971
-10.0908
-9.86569
-9.61793
-9.34293
-9.04342
-8.76006
-8.62469
-8.7165
-8.73973
-8.52121
-8.47299
-8.51629
-10.3607
-12.9851
-11.679
-12.1398
-11.8336
-11.7648
-11.6089
-11.546
-11.5202
-11.5302
-11.4911
-11.5526
-11.5871
-11.5829
-11.3142
-10.8191
-10.7216
-10.9415
-12.1305
-13.3928
-12.8726
-12.9212
-12.5749
-12.2716
-12.0035
-11.63
-11.3379
-11.2021
-11.1861
-11.0068
-10.9556
-11.1736
-11.5767
-11.4731
-10.4483
-9.453
-8.93863
-9.1941
-9.70591
-9.58223
-9.64347
-9.61651
-9.51695
-9.44747
-9.4519
-9.50894
-9.68445
-9.87426
-9.85037
-9.89719
-9.97671
-9.94825
-9.63194
-8.87064
-7.98634
-7.23943
-6.69328
-6.34765
-6.14438
-6.00634
-5.87898
-5.74421
-5.59829
-5.44053
-5.27362
-5.10217
-4.93034
-4.75881
-4.58551
-4.4079
-4.22576
-4.04062
-3.8538
-3.66657
-3.4793
-3.29056
-3.09867
-2.90287
-2.70345
-2.5017
-2.2991
-2.09675
-1.89516
-1.69439
-1.49428
-1.29459
-1.09516
-0.895815
-0.6967
-0.497367
-0.298836
-0.0998906
-11.9815
-11.9518
-11.8849
-11.7643
-11.6196
-11.4646
-11.309
-11.1541
-10.9969
-10.8341
-10.6637
-10.4835
-10.2911
-10.0833
-9.85607
-9.60546
-9.3264
-9.021
-8.72985
-8.59027
-8.6672
-8.61877
-8.29122
-8.06539
-7.90946
-9.00004
-11.4592
-11.5261
-11.5733
-11.5912
-11.376
-10.9456
-10.8793
-11.0479
-11.7722
-10.8293
-10.8698
-11.1647
-11.6417
-11.4371
-10.1974
-9.06871
-8.59082
-8.82734
-10.1794
-9.93733
-10.0345
-10.1626
-10.1447
-9.77583
-8.9289
-8.00371
-7.23852
-6.67995
-6.32972
-6.12819
-5.99337
-5.86837
-5.73518
-5.59031
-5.43342
-5.26768
-5.09768
-4.92714
-4.75645
-4.58339
-4.4057
-4.22357
-4.03866
-3.85227
-3.66562
-3.47897
-3.29073
-3.09912
-2.90339
-2.7039
-2.50201
-2.29928
-2.09682
-1.89516
-1.69436
-1.49424
-1.29455
-1.09513
-0.895791
-0.696691
-0.49736
-0.298868
-0.0998557
-11.98
-11.9502
-11.8832
-11.7625
-11.6175
-11.4623
-11.3062
-11.1509
-10.993
-10.8294
-10.658
-10.4764
-10.2822
-10.0721
-9.84185
-9.58708
-9.30215
-8.98822
-8.68585
-8.54041
-8.58677
-8.42757
-7.94474
-7.48919
-7.17335
-7.44399
-11.4493
-11.5079
-11.5719
-11.6427
-11.5023
-11.2161
-11.1544
-11.168
-11.4013
-10.7753
-10.8036
-11.1512
-11.6962
-11.3173
-9.78985
-8.53164
-8.17943
-8.42737
-9.96838
-10.016
-10.1998
-10.3941
-10.4257
-9.99411
-9.01922
-8.03394
-7.24161
-6.66247
-6.30368
-6.10395
-5.9729
-5.85107
-5.72027
-5.57707
-5.42177
-5.25812
-5.09054
-4.92199
-4.75262
-4.57975
-4.40214
-4.22026
-4.03585
-3.85019
-3.66444
-3.47867
-3.29111
-3.0999
-2.90424
-2.70463
-2.50252
-2.29957
-2.09694
-1.89517
-1.69432
-1.49418
-1.29449
-1.09508
-0.895761
-0.696681
-0.497356
-0.298919
-0.099805
-11.9781
-11.9482
-11.881
-11.7602
-11.6149
-11.4592
-11.3027
-11.1466
-10.988
-10.8233
-10.6505
-10.4672
-10.2708
-10.0577
-9.82354
-9.56358
-9.27156
-8.94753
-8.63175
-8.47589
-8.47318
-8.18712
-7.53969
-6.90211
-6.45743
-6.51139
-11.4616
-11.5325
-11.636
-11.7814
-11.743
-11.5614
-11.4267
-11.2065
-11.212
-10.6683
-10.7107
-11.1002
-11.6831
-11.1077
-9.31598
-8.02569
-7.9608
-8.26938
-10.1212
-10.1752
-10.364
-10.5899
-10.6906
-10.2353
-9.13299
-8.08317
-7.25277
-6.64267
-6.27005
-6.06989
-5.94239
-5.82445
-5.69693
-5.55658
-5.40428
-5.24403
-5.07985
-4.91405
-4.74605
-4.57388
-4.39668
-4.21574
-4.03254
-3.84818
-3.66367
-3.47891
-3.29206
-3.10119
-2.90554
-2.70569
-2.50326
-2.3
-2.09715
-1.89523
-1.6943
-1.49414
-1.29445
-1.09505
-0.895743
-0.696688
-0.497368
-0.299008
-0.0997411
-11.9759
-11.9458
-11.8784
-11.7574
-11.6117
-11.4555
-11.2983
-11.1415
-10.9819
-10.8159
-10.6414
-10.456
-10.2568
-10.0402
-9.80152
-9.5356
-9.23573
-8.90101
-8.57081
-8.39898
-8.34387
-7.94029
-7.16094
-6.4089
-5.89567
-5.8661
-11.5237
-11.5696
-11.7031
-11.8647
-11.8738
-11.7786
-11.5887
-11.136
-10.986
-10.4934
-10.5405
-10.9604
-11.5457
-10.8726
-8.92182
-7.68899
-7.92862
-8.2525
-10.0884
-10.226
-10.4351
-10.6531
-10.8411
-10.3997
-9.2554
-8.15379
-7.2707
-6.62033
-6.2304
-6.02701
-5.90218
-5.78782
-5.66409
-5.52791
-5.38025
-5.22488
-5.06518
-4.90264
-4.73644
-4.56519
-4.38915
-4.21014
-4.02901
-3.84659
-3.66355
-3.47981
-3.29356
-3.10295
-2.90722
-2.70706
-2.50423
-2.3006
-2.09746
-1.89537
-1.69435
-1.49415
-1.29444
-1.09505
-0.895752
-0.696724
-0.497404
-0.299148
-0.0996586
-11.9729
-11.9426
-11.875
-11.7536
-11.6074
-11.4506
-11.2926
-11.1347
-10.9737
-10.806
-10.6293
-10.4411
-10.2383
-10.0171
-9.77262
-9.49953
-9.19098
-8.84572
-8.49977
-8.30219
-8.20832
-7.74632
-6.90465
-6.09945
-5.54997
-5.50341
-11.5424
-11.5315
-11.5602
-11.6305
-11.6839
-11.6196
-11.3894
-10.7979
-10.4777
-10.0556
-10.1423
-10.5532
-11.196
-10.7456
-8.92096
-7.83614
-8.25368
-8.53814
-9.91421
-10.0712
-10.218
-10.3811
-10.5554
-10.2897
-9.33881
-8.25544
-7.32552
-6.64064
-6.21639
-5.98711
-5.84869
-5.73168
-5.61124
-5.48122
-5.34142
-5.19398
-5.04129
-4.88378
-4.72055
-4.55101
-4.37777
-4.20234
-4.02463
-3.8452
-3.66426
-3.48168
-3.29592
-3.10539
-2.90944
-2.70888
-2.50557
-2.30151
-2.09805
-1.89573
-1.69456
-1.49429
-1.29454
-1.09514
-0.895833
-0.696837
-0.497502
-0.299422
-0.0995223
-11.9701
-11.9397
-11.8718
-11.7501
-11.6035
-11.446
-11.2872
-11.1284
-10.9661
-10.7968
-10.6181
-10.4273
-10.2212
-9.99593
-9.74647
-9.46778
-9.1536
-8.80361
-8.44847
-8.22353
-8.14515
-7.77231
-6.99608
-6.19895
-5.61983
-5.55972
-11.4475
-11.427
-11.3867
-11.4457
-11.3725
-11.1272
-10.9189
-10.3929
-9.87962
-9.75198
-9.88254
-10.2528
-10.9342
-10.7642
-9.20178
-8.31163
-8.93415
-9.19644
-10.1966
-10.2849
-10.3141
-10.3174
-10.3002
-9.98519
-9.21367
-8.28552
-7.40975
-6.71833
-6.24018
-5.95656
-5.79029
-5.66705
-5.5509
-5.42956
-5.29968
-5.16201
-5.01805
-4.86714
-4.70816
-4.54193
-4.37169
-4.19859
-4.02248
-3.84414
-3.6642
-3.4825
-3.29724
-3.10691
-2.911
-2.7103
-2.50675
-2.30246
-2.0988
-1.89634
-1.69504
-1.49465
-1.29482
-1.09536
-0.896028
-0.697053
-0.497674
-0.29982
-0.0993539
-11.9682
-11.9378
-11.8697
-11.7478
-11.6008
-11.443
-11.2837
-11.1242
-10.961
-10.7907
-10.6106
-10.4181
-10.2098
-9.98188
-9.7293
-9.4473
-9.13046
-8.7797
-8.42327
-8.17305
-8.11391
-7.88582
-7.26804
-6.57015
-6.00402
-5.97763
-11.5148
-11.4745
-11.417
-11.3827
-11.1213
-10.6624
-10.5649
-10.2794
-9.70097
-9.75466
-9.90712
-10.2251
-10.8698
-10.8356
-9.56931
-8.95748
-9.71666
-9.89776
-10.3508
-10.3908
-10.3745
-10.3532
-10.2754
-9.9563
-9.20164
-8.29079
-7.45681
-6.75706
-6.23893
-5.91751
-5.73678
-5.61334
-5.50423
-5.39179
-5.27087
-5.14172
-5.00489
-4.85891
-4.70323
-4.53954
-4.37059
-4.19794
-4.02151
-3.84306
-3.66338
-3.48208
-3.29731
-3.10742
-2.91175
-2.71111
-2.5075
-2.30313
-2.09938
-1.89683
-1.69544
-1.49498
-1.29508
-1.09558
-0.896214
-0.69725
-0.497827
-0.300157
-0.0992171
-11.9668
-11.9364
-11.8682
-11.746
-11.5988
-11.4407
-11.281
-11.121
-10.9572
-10.786
-10.6049
-10.4111
-10.2012
-9.97123
-9.71635
-9.432
-9.11358
-8.76323
-8.40909
-8.14036
-8.08335
-7.99674
-7.58766
-7.0811
-6.62821
-6.77055
-11.4575
-11.4506
-11.39
-11.2437
-10.855
-10.3671
-10.3521
-10.2979
-9.77613
-9.91579
-10.043
-10.2996
-10.8787
-10.9368
-10.0154
-9.68906
-10.3911
-10.4991
-10.4574
-10.4362
-10.39
-10.3651
-10.2526
-9.91726
-9.20048
-8.30826
-7.48102
-6.77015
-6.22219
-5.87723
-5.68912
-5.5692
-5.46781
-5.3636
-5.25039
-5.12804
-4.99636
-4.85358
-4.69985
-4.53757
-4.36937
-4.19678
-4.02041
-3.84196
-3.66245
-3.48146
-3.29713
-3.10762
-2.9122
-2.71165
-2.50805
-2.30364
-2.09985
-1.89724
-1.6958
-1.49527
-1.29532
-1.09578
-0.896386
-0.697427
-0.497966
-0.300444
-0.0991092
-11.9658
-11.9353
-11.8671
-11.7447
-11.5974
-11.4391
-11.2791
-11.1187
-10.9544
-10.7827
-10.6008
-10.4061
-10.195
-9.9637
-9.70722
-9.4213
-9.10197
-8.75241
-8.40166
-8.12417
-8.04843
-8.05961
-7.86547
-7.63566
-7.3377
-8.41939
-11.8293
-11.3414
-11.2012
-11.0144
-10.6284
-10.2808
-10.2556
-10.2671
-9.83375
-10.1757
-10.2051
-10.395
-10.8993
-11.0172
-10.37
-10.2177
-10.8389
-10.982
-10.5868
-10.4414
-10.4109
-10.3806
-10.2381
-9.88974
-9.20265
-8.33249
-7.49742
-6.7712
-6.20495
-5.84676
-5.65586
-5.54002
-5.44483
-5.34665
-5.2387
-5.12046
-4.99152
-4.8502
-4.69725
-4.53554
-4.36779
-4.19538
-4.01917
-3.8409
-3.66159
-3.48088
-3.29686
-3.10765
-2.91243
-2.71198
-2.5084
-2.30399
-2.10018
-1.89755
-1.69607
-1.4955
-1.29551
-1.09595
-0.896529
-0.697572
-0.498081
-0.300669
-0.0990363
-11.9652
-11.9347
-11.8663
-11.7439
-11.5965
-11.438
-11.2778
-11.1172
-10.9527
-10.7805
-10.5982
-10.4028
-10.1911
-9.95882
-9.70132
-9.41439
-9.09452
-8.74556
-8.39747
-8.11649
-8.02097
-8.07725
-8.02966
-8.03045
-7.99052
-9.97997
-13.2539
-12.1093
-12.1756
-11.3379
-10.6931
-10.4419
-10.4285
-10.5074
-10.8055
-11.2135
-11.0907
-10.9768
-10.8106
-10.4891
-10.2828
-10.2239
-10.274
-10.1023
-10.3444
-10.3922
-10.5126
-10.6203
-10.5384
-10.4937
-10.4552
-10.5136
-10.3992
-10.6899
-10.3802
-10.3168
-10.4587
-10.9043
-11.0576
-10.5921
-10.5372
-11.0906
-11.3296
-11.516
-11.2848
-11.4254
-11.5076
-11.4163
-11.0152
-10.8362
-10.7128
-11.0388
-10.6747
-10.4508
-10.4547
-10.3967
-10.2266
-9.86927
-9.20395
-8.35325
-7.51103
-6.77344
-6.19493
-5.82891
-5.63677
-5.52363
-5.43211
-5.33742
-5.2324
-5.11631
-4.98874
-4.8481
-4.69546
-4.53401
-4.36652
-4.19428
-4.01824
-3.84014
-3.661
-3.48048
-3.29665
-3.10763
-2.91255
-2.71216
-2.50861
-2.3042
-2.10039
-1.89775
-1.69625
-1.49565
-1.29564
-1.09606
-0.896627
-0.697671
-0.498163
-0.300815
-0.0989966
-11.9642
-11.9337
-11.8652
-11.7428