/*--------------------------------*- C++ -*----------------------------------*\
| =========                 |                                                 |
| \\      /  F ield         | OpenFOAM: The Open Source CFD Toolbox           |
|  \\    /   O peration     | Version:  v2006                                 |
|   \\  /    A nd           | Website:  www.openfoam.com                      |
|    \\/     M anipulation  |                                                 |
\*---------------------------------------------------------------------------*/
FoamFile
{
    version     2.0;
    format      ascii;
    class       volScalarField;
    location    "0.57";
    object      k;
}
// * * * * * * * * * * * * * * * * * * * * * * * * * * * * * * * * * * * * * //

dimensions      [0 2 -2 0 0 0 0];


internalField   nonuniform List<scalar> 
374400
(
0.0970148
0.11615
0.107849
0.0957033
0.0938417
0.096919
0.104823
0.11386
0.121821
0.128525
0.134503
0.140013
0.14525
0.150276
0.155278
0.160264
0.165272
0.170271
0.175028
0.179258
0.1827
0.185318
0.187383
0.188879
0.190085
0.190999
0.19161
0.192532
0.193776
0.195352
0.197621
0.199951
0.201649
0.203019
0.204058
0.204749
0.205793
0.207196
0.208959
0.211463
0.213984
0.215801
0.21725
0.218342
0.219064
0.220153
0.221606
0.223426
0.225237
0.226686
0.228481
0.230273
0.231688
0.232744
0.23344
0.234484
0.23587
0.237584
0.239964
0.242291
0.243941
0.245239
0.246208
0.246845
0.247801
0.249071
0.25064
0.252822
0.254959
0.256482
0.257679
0.258576
0.259165
0.260051
0.261228
0.262687
0.264716
0.26758
0.271544
0.276524
0.282042
0.287636
0.29313
0.298291
0.302729
0.306301
0.309172
0.311506
0.313437
0.315056
0.316431
0.317616
0.318643
0.319535
0.320306
0.320966
0.32153
0.322008
0.322411
0.322748
0.323024
0.323246
0.323421
0.323557
0.323663
0.323744
0.323809
0.323859
0.323901
0.323936
0.323971
0.323999
0.324031
0.324061
0.32408
0.324254
0.323991
0.097016
0.116148
0.107845
0.0956964
0.0938304
0.0969053
0.104805
0.113839
0.1218
0.128505
0.134489
0.140007
0.145255
0.150296
0.155317
0.160327
0.165362
0.170394
0.175183
0.179444
0.18291
0.185547
0.187626
0.189131
0.190345
0.191264
0.191879
0.192806
0.194056
0.19564
0.19792
0.200259
0.201963
0.203338
0.204379
0.205072
0.206119
0.207526
0.209293
0.211801
0.214325
0.216143
0.217593
0.218685
0.219407
0.220496
0.221948
0.223766
0.225575
0.227021
0.228813
0.2306
0.232011
0.233064
0.233758
0.234798
0.23618
0.237887
0.240258
0.242574
0.244216
0.245506
0.24647
0.247102
0.248052
0.249314
0.250873
0.253041
0.255164
0.256676
0.257864
0.258755
0.259338
0.260218
0.261385
0.262832
0.264845
0.267686
0.271622
0.276567
0.282047
0.28761
0.29308
0.298228
0.302664
0.306241
0.309119
0.311468
0.313413
0.315047
0.316439
0.317641
0.318685
0.319591
0.320374
0.321045
0.321619
0.322104
0.322514
0.322853
0.323131
0.323352
0.323525
0.32366
0.323764
0.323844
0.323907
0.323955
0.323998
0.324033
0.324066
0.324095
0.324128
0.324157
0.324176
0.324352
0.32409
0.0970177
0.116141
0.107834
0.0956763
0.0938008
0.0968722
0.104766
0.113793
0.121753
0.128463
0.134459
0.139993
0.145265
0.150337
0.1554
0.160462
0.16556
0.170663
0.175525
0.179856
0.183378
0.186056
0.188166
0.189693
0.190923
0.191854
0.192476
0.193414
0.194679
0.196281
0.198584
0.200943
0.202661
0.204046
0.205094
0.205792
0.206845
0.208259
0.210034
0.212552
0.215081
0.216901
0.218352
0.219444
0.220165
0.221253
0.222703
0.224518
0.226321
0.227763
0.229547
0.231324
0.232726
0.233772
0.23446
0.235493
0.236864
0.238556
0.240903
0.243192
0.244814
0.246088
0.24704
0.247664
0.248602
0.249847
0.251383
0.253517
0.255604
0.25709
0.258257
0.259132
0.259706
0.26057
0.261717
0.26314
0.265116
0.267904
0.271765
0.276617
0.281997
0.287467
0.292865
0.297963
0.302374
0.30595
0.308843
0.311214
0.313191
0.314862
0.316292
0.317531
0.31861
0.319547
0.320358
0.321053
0.321644
0.322144
0.322563
0.322908
0.323187
0.323407
0.323576
0.323704
0.323804
0.323878
0.323935
0.323979
0.324017
0.324049
0.324082
0.324109
0.32414
0.32417
0.32419
0.324365
0.324102
0.0970204
0.116132
0.107816
0.0956427
0.0937496
0.0968139
0.104694
0.113711
0.121664
0.128376
0.134387
0.139945
0.14525
0.150368
0.155493
0.160637
0.165834
0.171052
0.176036
0.180481
0.184097
0.186844
0.189007
0.19057
0.191828
0.19278
0.193416
0.194374
0.195665
0.197298
0.199641
0.202037
0.203779
0.205182
0.206242
0.206947
0.208011
0.209437
0.211227
0.213761
0.216302
0.218127
0.21958
0.220672
0.221393
0.22248
0.223927
0.225735
0.227529
0.228962
0.230732
0.232493
0.233881
0.234914
0.235594
0.236613
0.237963
0.23963
0.24194
0.244188
0.245778
0.247024
0.247953
0.248562
0.249476
0.250688
0.252184
0.254261
0.256291
0.257734
0.258866
0.259713
0.260268
0.261103
0.262211
0.263585
0.265495
0.268193
0.271934
0.27664
0.281866
0.287194
0.292482
0.297513
0.301895
0.305478
0.308401
0.310821
0.312851
0.314577
0.316065
0.31736
0.318494
0.31948
0.320332
0.321063
0.321684
0.322207
0.322638
0.322987
0.323264
0.323477
0.323636
0.323753
0.32384
0.3239
0.323947
0.323983
0.324015
0.324041
0.324069
0.324094
0.324125
0.324155
0.324175
0.324353
0.324092
0.0970249
0.116117
0.107787
0.095589
0.0936668
0.096719
0.104577
0.113572
0.121509
0.128218
0.134241
0.139821
0.145167
0.150342
0.155548
0.160804
0.166142
0.171529
0.176697
0.181318
0.18508
0.187935
0.190181
0.191802
0.193105
0.19409
0.194747
0.195737
0.197069
0.198751
0.201158
0.20361
0.205389
0.206819
0.207898
0.208615
0.209696
0.211144
0.212957
0.215517
0.218073
0.219905
0.22136
0.222451
0.223172
0.224257
0.2257
0.227501
0.229283
0.230703
0.232452
0.234188
0.235553
0.236568
0.237235
0.238235
0.239559
0.241191
0.243443
0.245625
0.247164
0.24837
0.249268
0.249857
0.250741
0.251914
0.253357
0.255354
0.257295
0.258674
0.259754
0.260565
0.261095
0.261895
0.262956
0.264271
0.266094
0.268663
0.272218
0.276694
0.281678
0.286791
0.291914
0.296844
0.30119
0.304787
0.307756
0.31024
0.312349
0.314163
0.315736
0.317114
0.318321
0.319375
0.320287
0.321068
0.321727
0.322278
0.322725
0.323084
0.32336
0.323566
0.323715
0.323819
0.323891
0.323938
0.323973
0.323997
0.32402
0.324038
0.324063
0.324085
0.324115
0.324144
0.324163
0.324341
0.324083
0.0970319
0.116094
0.107743
0.0955075
0.0935397
0.096572
0.104393
0.11335
0.121255
0.127945
0.133969
0.139565
0.144948
0.150186
0.15549
0.160886
0.166415
0.17204
0.177473
0.182358
0.186344
0.189371
0.191745
0.193457
0.194831
0.195868
0.196559
0.197599
0.198996
0.200756
0.203264
0.20581
0.207649
0.209123
0.210233
0.210969
0.212077
0.213559
0.215409
0.218012
0.220598
0.222444
0.223905
0.224998
0.225719
0.226802
0.228239
0.230027
0.23179
0.233192
0.234912
0.236615
0.23795
0.238939
0.239588
0.240557
0.241838
0.243415
0.245588
0.247685
0.249157
0.250303
0.251153
0.251708
0.252539
0.253638
0.25499
0.256864
0.258683
0.259969
0.26097
0.261716
0.262202
0.262934
0.263903
0.265106
0.26678
0.26915
0.272447
0.276611
0.281269
0.286105
0.291038
0.295878
0.300218
0.303868
0.306917
0.309496
0.311702
0.313614
0.315292
0.316773
0.318078
0.319219
0.320211
0.321061
0.321777
0.322364
0.322833
0.323197
0.323467
0.323658
0.323785
0.323866
0.323912
0.323937
0.323951
0.323961
0.323974
0.323988
0.324008
0.324028
0.324059
0.32409
0.324113
0.324296
0.324041
0.0970422
0.116061
0.10768
0.0953885
0.0933527
0.0963536
0.104116
0.113012
0.120857
0.127502
0.133504
0.139093
0.144499
0.149792
0.155197
0.160762
0.166529
0.172479
0.178291
0.183564
0.18789
0.191179
0.193757
0.195611
0.197096
0.198213
0.198957
0.200075
0.201572
0.203453
0.206119
0.208805
0.210735
0.212275
0.21343
0.214195
0.215345
0.216874
0.218777
0.221436
0.224056
0.225915
0.22738
0.228472
0.22919
0.230268
0.231695
0.233463
0.235194
0.236566
0.23824
0.239888
0.241173
0.242123
0.242746
0.243677
0.244903
0.246407
0.248462
0.250422
0.251792
0.252857
0.253648
0.254166
0.254942
0.255968
0.257223
0.25894
0.26058
0.261738
0.262641
0.263318
0.263761
0.264431
0.265318
0.266412
0.267916
0.270023
0.272924
0.276592
0.28075
0.285154
0.2898
0.294515
0.298854
0.302584
0.305759
0.308481
0.310841
0.312905
0.314721
0.316325
0.317751
0.319008
0.320102
0.321033
0.321807
0.322435
0.32293
0.323303
0.323567
0.323744
0.323849
0.3239
0.323916
0.323915
0.323908
0.323902
0.323902
0.32391
0.323926
0.323946
0.323978
0.324012
0.324039
0.324227
0.323977
0.097056
0.116015
0.107592
0.0952223
0.0930888
0.0960438
0.103718
0.112517
0.120264
0.126818
0.132753
0.138292
0.14368
0.148994
0.154483
0.16022
0.166278
0.172645
0.178994
0.18485
0.189702
0.193411
0.196318
0.198404
0.20007
0.20132
0.202151
0.203397
0.205059
0.207138
0.210056
0.212965
0.215039
0.216684
0.21791
0.218719
0.219931
0.221533
0.223516
0.226261
0.228936
0.230817
0.23229
0.233381
0.234097
0.235167
0.236577
0.238315
0.240005
0.241336
0.242949
0.24453
0.245757
0.246657
0.247244
0.248117
0.249261
0.250658
0.252568
0.254378
0.25563
0.256586
0.257284
0.257736
0.258405
0.259282
0.26035
0.261823
0.263223
0.264194
0.264926
0.265462
0.265806
0.266316
0.266989
0.267823
0.268993
0.270673
0.273022
0.276028
0.279514
0.28345
0.287892
0.292631
0.297103
0.30102
0.304378
0.307254
0.309727
0.311891
0.313829
0.31558
0.317166
0.318586
0.319827
0.320882
0.321752
0.322449
0.322981
0.323363
0.323616
0.323759
0.32382
0.323825
0.323801
0.323761
0.323728
0.323706
0.323698
0.323703
0.323722
0.323749
0.323789
0.323832
0.323872
0.324074
0.323837
0.0970752
0.115954
0.107472
0.0950018
0.0927308
0.0956199
0.103169
0.111823
0.119413
0.125815
0.131605
0.137012
0.142304
0.147561
0.153064
0.158932
0.165296
0.172198
0.179265
0.185984
0.191686
0.196059
0.199502
0.201974
0.203941
0.205411
0.206387
0.207848
0.209784
0.21219
0.215522
0.218785
0.221081
0.222878
0.224202
0.225073
0.226365
0.22806
0.230141
0.232981
0.235696
0.237578
0.239032
0.2401
0.240797
0.241833
0.243189
0.244844
0.246432
0.247673
0.249159
0.250597
0.251698
0.252502
0.253024
0.253802
0.254816
0.256048
0.257696
0.259216
0.260263
0.26107
0.261673
0.262067
0.262666
0.263454
0.264412
0.265678
0.266817
0.267606
0.268209
0.268661
0.268955
0.269403
0.269979
0.270658
0.271523
0.27264
0.274062
0.275883
0.278202
0.281242
0.285244
0.289906
0.294564
0.298784
0.302451
0.305565
0.308193
0.31048
0.31259
0.314567
0.316386
0.31801
0.319414
0.320596
0.321557
0.322317
0.32289
0.323286
0.323528
0.32364
0.323657
0.323618
0.323541
0.323467
0.323409
0.323375
0.323367
0.323377
0.323409
0.323449
0.323512
0.32357
0.323629
0.323849
0.323641
0.0970979
0.115879
0.107331
0.0947249
0.0922822
0.0950877
0.102467
0.110931
0.118292
0.124456
0.129998
0.135157
0.140202
0.145255
0.150613
0.156471
0.163064
0.170514
0.178483
0.18638
0.193252
0.198755
0.203073
0.20617
0.208633
0.210467
0.211683
0.213494
0.215881
0.218829
0.222853
0.226717
0.229404
0.23147
0.23296
0.23393
0.235354
0.237184
0.239391
0.242275
0.244938
0.246763
0.248167
0.249199
0.249872
0.250875
0.25219
0.253792
0.25532
0.256506
0.257897
0.259223
0.26022
0.260935
0.261391
0.26206
0.262932
0.263984
0.265428
0.266776
0.267696
0.268384
0.268869
0.269173
0.26961
0.270159
0.270787
0.271618
0.272323
0.272736
0.272955
0.273073
0.273123
0.273177
0.27325
0.273344
0.273485
0.273716
0.273834
0.273974
0.27472
0.277079
0.2813
0.286513
0.291833
0.296565
0.300337
0.3034
0.306008
0.308349
0.310626
0.312858
0.314957
0.316842
0.318475
0.319844
0.320958
0.321831
0.322478
0.322907
0.323142
0.323218
0.32319
0.323082
0.322958
0.322854
0.322785
0.322762
0.322777
0.32282
0.322899
0.322978
0.323086
0.323177
0.323277
0.32354
0.323388
0.0971232
0.115801
0.107166
0.0944222
0.091776
0.094482
0.101664
0.109899
0.116953
0.122825
0.127981
0.132771
0.137355
0.142
0.146935
0.152468
0.158993
0.166696
0.175438
0.184679
0.19322
0.200086
0.205729
0.209871
0.213207
0.215716
0.21738
0.219875
0.223136
0.227132
0.232367
0.237016
0.240026
0.242195
0.243701
0.244661
0.246018
0.247709
0.24968
0.252188
0.254412
0.255869
0.256953
0.25774
0.258255
0.259018
0.260036
0.261303
0.262509
0.263446
0.264523
0.265498
0.266177
0.26664
0.266931
0.267362
0.267885
0.268456
0.269142
0.269773
0.270273
0.27075
0.271186
0.271492
0.272031
0.272812
0.273883
0.275449
0.276934
0.278003
0.278817
0.279368
0.279729
0.280226
0.280653
0.280815
0.280667
0.279584
0.277394
0.274308
0.272071
0.272596
0.275942
0.281867
0.288078
0.293403
0.297289
0.300288
0.30291
0.305358
0.307825
0.310344
0.312774
0.314961
0.316841
0.318421
0.319725
0.320762
0.321543
0.322072
0.322368
0.322457
0.322412
0.322268
0.322126
0.322025
0.321989
0.322009
0.322093
0.322206
0.322365
0.322502
0.322685
0.322832
0.322994
0.323322
0.323255
0.0971503
0.115717
0.106989
0.0941165
0.09123
0.0938424
0.100796
0.108788
0.115475
0.121005
0.125636
0.129947
0.133857
0.137776
0.14193
0.146611
0.152417
0.159688
0.168733
0.17914
0.189717
0.198848
0.206856
0.212628
0.217276
0.220653
0.222823
0.22595
0.229668
0.233847
0.237872
0.240206
0.241218
0.241642
0.241856
0.241954
0.242112
0.242305
0.242576
0.243246
0.244269
0.245181
0.245947
0.246532
0.246928
0.247499
0.24823
0.248985
0.24956
0.249616
0.249362
0.248695
0.247643
0.246765
0.246124
0.245126
0.244008
0.24318
0.243099
0.243843
0.245366
0.246948
0.248135
0.248944
0.250112
0.251546
0.253123
0.255462
0.258134
0.260126
0.261658
0.262774
0.263461
0.264461
0.265882
0.267741
0.269919
0.271009
0.270053
0.265953
0.262743
0.263783
0.269098
0.27721
0.284736
0.290284
0.293783
0.296071
0.298394
0.300816
0.303364
0.306179
0.309031
0.31167
0.313961
0.315926
0.317589
0.318943
0.319979
0.3207
0.321148
0.321328
0.321328
0.321219
0.321101
0.321054
0.32109
0.321217
0.321428
0.321651
0.321923
0.322157
0.32244
0.322659
0.322915
0.323301
0.323338
0.0971746
0.115638
0.106817
0.0938231
0.0906711
0.0932132
0.0998995
0.107688
0.113957
0.119078
0.123167
0.126816
0.129923
0.132778
0.135721
0.138862
0.142946
0.148529
0.156538
0.167318
0.18042
0.191576
0.201527
0.209059
0.213967
0.217073
0.21892
0.221444
0.224093
0.227748
0.227557
0.225712
0.222825
0.219639
0.217169
0.215456
0.213017
0.209855
0.206791
0.203438
0.201695
0.201898
0.202645
0.203806
0.204941
0.207017
0.210468
0.215413
0.220057
0.223368
0.226024
0.227033
0.226758
0.226171
0.225473
0.224096
0.222051
0.219121
0.21557
0.214403
0.214859
0.217001
0.220632
0.223345
0.228097
0.235311
0.247056
0.264197
0.27825
0.286426
0.291144
0.29356
0.294884
0.295949
0.296245
0.295376
0.293313
0.288183
0.275054
0.257934
0.246936
0.247215
0.255437
0.268065
0.278391
0.284558
0.287286
0.28838
0.289759
0.292237
0.295279
0.298793
0.302681
0.306376
0.309545
0.312186
0.31439
0.316204
0.317634
0.318716
0.319499
0.319943
0.320103
0.320081
0.320035
0.320052
0.3202
0.320457
0.320812
0.321169
0.321573
0.321915
0.322309
0.322607
0.322962
0.323387
0.323545
0.0971964
0.115572
0.10668
0.0935447
0.0901859
0.0926434
0.0990981
0.106701
0.112541
0.117321
0.120859
0.123797
0.126092
0.127761
0.129104
0.130244
0.131546
0.13398
0.139129
0.150164
0.163764
0.179896
0.197242
0.215492
0.23236
0.249034
0.263465
0.288601
0.329562
0.371419
0.389906
0.38517
0.375075
0.361145
0.350374
0.343056
0.332778
0.31962
0.305657
0.284647
0.267681
0.258002
0.254203
0.254602
0.255611
0.258893
0.266695
0.278226
0.288107
0.294391
0.298041
0.297656
0.296338
0.294309
0.292703
0.289981
0.286402
0.280293
0.272464
0.272545
0.276131
0.284223
0.289099
0.290638
0.290069
0.283917
0.259608
0.243515
0.243962
0.248795
0.258138
0.264649
0.26872
0.274175
0.280164
0.286206
0.290758
0.290265
0.278112
0.251351
0.232776
0.231121
0.240931
0.256266
0.267618
0.273793
0.27576
0.275755
0.275979
0.277822
0.281363
0.285624
0.290592
0.295651
0.299997
0.303619
0.306748
0.309494
0.311901
0.313984
0.315734
0.31699
0.317744
0.318103
0.318327
0.318559
0.318921
0.319365
0.319906
0.320423
0.320975
0.321433
0.321938
0.322309
0.322756
0.323213
0.323476
0.0972153
0.115517
0.106608
0.0932882
0.089836
0.0921844
0.0985097
0.105869
0.111482
0.115857
0.119048
0.121372
0.122838
0.123665
0.123324
0.122505
0.120847
0.11895
0.120714
0.129835
0.151375
0.195378
0.288775
0.375779
0.442923
0.489704
0.517706
0.560972
0.596629
0.618798
0.604818
0.57056
0.534191
0.502879
0.480045
0.465034
0.444351
0.418035
0.387831
0.340302
0.296267
0.273316
0.263567
0.264211
0.266335
0.274067
0.292859
0.330485
0.36835
0.395271
0.412979
0.408947
0.397286
0.380872
0.369557
0.350512
0.325733
0.293072
0.23041
0.142511
0.102712
0.101546
0.105256
0.107893
0.106806
0.0980293
0.0877269
0.0861569
0.0909079
0.0992815
0.107271
0.113748
0.118223
0.125533
0.13588
0.15085
0.17223
0.198392
0.212274
0.206819
0.203407
0.213867
0.234954
0.252862
0.262778
0.2653
0.264107
0.260558
0.257435
0.256567
0.2581
0.262116
0.267118
0.272968
0.279289
0.285613
0.291678
0.297325
0.302474
0.307022
0.31079
0.313497
0.315194
0.31611
0.316655
0.31709
0.31762
0.318214
0.318899
0.319541
0.320203
0.320739
0.321317
0.321731
0.322235
0.322701
0.323024
0.0972258
0.115492
0.106558
0.0931147
0.089579
0.0918626
0.0981088
0.105266
0.110755
0.11482
0.117717
0.119702
0.120497
0.120465
0.119369
0.116749
0.112694
0.106419
0.104541
0.115176
0.169626
0.32235
0.453086
0.510936
0.545226
0.566528
0.581703
0.607334
0.607812
0.591953
0.551081
0.510285
0.476648
0.443556
0.416131
0.396551
0.366445
0.327359
0.275618
0.209319
0.159077
0.163
0.176499
0.194046
0.214189
0.238138
0.291403
0.33978
0.400481
0.441197
0.435555
0.405331
0.353229
0.314045
0.289716
0.253345
0.196971
0.140319
0.104659
0.0925039
0.113997
0.14749
0.154502
0.148125
0.138818
0.135118
0.139087
0.147287
0.154631
0.157714
0.157989
0.15724
0.155776
0.152688
0.147756
0.13999
0.128704
0.129212
0.14611
0.165132
0.1851
0.209159
0.232631
0.249623
0.257242
0.25654
0.252827
0.247889
0.24402
0.241663
0.240426
0.240288
0.241916
0.246661
0.254503
0.264944
0.276173
0.286503
0.295545
0.302974
0.308543
0.312202
0.314257
0.315187
0.315636
0.315998
0.316519
0.317155
0.317912
0.318622
0.319346
0.319919
0.320533
0.320955
0.321488
0.321947
0.322299
0.0972274
0.115491
0.106513
0.0930067
0.0893943
0.0916425
0.0978488
0.10485
0.110247
0.114145
0.116748
0.118583
0.118837
0.118362
0.116571
0.112745
0.106846
0.0978661
0.0918241
0.111563
0.233738
0.389066
0.468861
0.43497
0.388472
0.394527
0.419248
0.424276
0.413715
0.384438
0.369176
0.342414
0.304326
0.270309
0.2455
0.229608
0.205504
0.159652
0.119076
0.0942433
0.0986439
0.121948
0.148975
0.171439
0.192495
0.226811
0.271489
0.353281
0.39948
0.398489
0.355429
0.251096
0.161948
0.12297
0.10974
0.107111
0.121795
0.136374
0.153811
0.266352
0.325876
0.336866
0.309152
0.279464
0.236625
0.209191
0.204321
0.211126
0.223516
0.233443
0.24103
0.246446
0.249832
0.253896
0.256415
0.255172
0.242949
0.189184
0.162185
0.1653
0.181095
0.205898
0.226329
0.240891
0.246039
0.244052
0.243507
0.243683
0.24335
0.241839
0.239212
0.236451
0.235826
0.238965
0.247535
0.259728
0.273138
0.285319
0.295662
0.30376
0.309397
0.312693
0.3142
0.314617
0.314733
0.31494
0.31543
0.316106
0.316928
0.317689
0.318454
0.319045
0.319679
0.320103
0.320658
0.321105
0.321485
0.09723
0.115491
0.106477
0.0929237
0.0892696
0.0914931
0.0976713
0.10457
0.109867
0.113699
0.116058
0.117774
0.117698
0.116908
0.114597
0.10992
0.102796
0.0918081
0.0832109
0.11871
0.270271
0.390614
0.357652
0.313537
0.312152
0.338333
0.374276
0.366432
0.335182
0.309443
0.265053
0.186045
0.145202
0.122533
0.10588
0.0933314
0.0794369
0.0614552
0.0550643
0.0968741
0.109364
0.0983531
0.14184
0.213485
0.259983
0.273686
0.316008
0.329302
0.304686
0.232497
0.134261
0.0887295
0.0830914
0.084332
0.089871
0.105108
0.13224
0.175001
0.301308
0.388246
0.38703
0.371643
0.324124
0.28868
0.239117
0.212006
0.209187
0.220312
0.234569
0.2457
0.255917
0.264623
0.270854
0.279377
0.287777
0.301595
0.304121
0.271538
0.196883
0.173589
0.181311
0.200837
0.218564
0.231976
0.236423
0.237949
0.243595
0.249402
0.252257
0.252238
0.249354
0.24524
0.243375
0.246008
0.25465
0.267075
0.280043
0.291027
0.29996
0.30673
0.311121
0.313304
0.313936
0.313837
0.313685
0.313788
0.314314
0.315075
0.315968
0.316775
0.317571
0.318177
0.318827
0.319253
0.319833
0.320267
0.320681
0.0972355
0.115487
0.106444
0.0928482
0.0891754
0.0913793
0.0975278
0.104357
0.109557
0.113343
0.115533
0.11708
0.116862
0.115767
0.113019
0.107711
0.0996587
0.0870884
0.0770603
0.125524
0.279856
0.358801
0.314394
0.270806
0.251043
0.317065
0.337958
0.271009
0.205305
0.134776
0.0706679
0.0516895
0.0554668
0.0498572
0.0465525
0.0471691
0.0513878
0.0415995
0.0711412
0.105813
0.0976729
0.225112
0.281802
0.342757
0.334834
0.274108
0.246577
0.157267
0.0955297
0.100621
0.0901413
0.0836122
0.0810873
0.0800352
0.0839272
0.111682
0.16751
0.291924
0.398938
0.408542
0.374255
0.354601
0.282566
0.245412
0.179082
0.160421
0.152164
0.152293
0.161924
0.177563
0.196596
0.212133
0.229754
0.253947
0.277167
0.302636
0.331473
0.316889
0.239791
0.188017
0.182917
0.19467
0.21198
0.226163
0.232647
0.239104
0.249576
0.257935
0.262808
0.263769
0.26172
0.258133
0.256407
0.259044
0.267254
0.278573
0.289907
0.298517
0.305011
0.309649
0.312349
0.313289
0.313215
0.312715
0.312443
0.312569
0.31319
0.314052
0.315019
0.315869
0.316692
0.317311
0.317978
0.31841
0.319017
0.319442
0.319894
0.0972432
0.115465
0.106402
0.092788
0.0891027
0.0912894
0.0974093
0.104198
0.109325
0.113072
0.115154
0.116556
0.116239
0.114932
0.111851
0.106112
0.0974029
0.083695
0.0730981
0.130621
0.281318
0.337457
0.261803
0.2237
0.212942
0.300405
0.303504
0.175129
0.0966897
0.0394458
0.0238671
0.0259116
0.0218721
0.0183205
0.0231152
0.0392774
0.0479321
0.0449708
0.0917233
0.124303
0.186758
0.312593
0.302129
0.344794
0.295882
0.117258
0.0617797
0.0862384
0.0894691
0.085541
0.073442
0.0644993
0.0621955
0.0672471
0.0670452
0.115132
0.222288
0.371031
0.449613
0.37863
0.347178
0.323729
0.227972
0.206314
0.100946
0.0734535
0.065481
0.0642949
0.0693051
0.0783869
0.0959122
0.114183
0.144311
0.207168
0.251042
0.296042
0.341957
0.339498
0.26834
0.200105
0.183718
0.190786
0.207829
0.223312
0.231937
0.241684
0.253645
0.263195
0.26917
0.271146
0.270148
0.267608
0.26642
0.269079
0.276737
0.287003
0.297037
0.304015
0.308598
0.311325
0.312515
0.312548
0.311973
0.311315
0.311107
0.311361
0.312149
0.313111
0.314148
0.315034
0.31588
0.316511
0.317196
0.317636
0.318271
0.318688
0.319179
0.0972444
0.11546
0.106393
0.0927648
0.0890565
0.0912288
0.0973264
0.104094
0.109175
0.112892
0.114906
0.11621
0.115825
0.114384
0.111087
0.105082
0.095954
0.081548
0.0708756
0.133375
0.276518
0.321812
0.244825
0.208131
0.192984
0.242279
0.0446674
0.048111
0.056643
0.116384
0.143767
0.257618
0.326895
0.296392
0.324768
0.0628971
0.101524
0.247692
0.399879
0.461595
0.365631
0.329999
0.303751
0.174051
0.105103
0.143822
0.218091
0.283408
0.34959
0.353194
0.284075
0.20833
0.183886
0.188277
0.205228
0.221435
0.231326
0.242307
0.254956
0.265325
0.27238
0.275506
0.275334
0.273394
0.272341
0.274773
0.281801
0.291372
0.300794
0.306944
0.310318
0.311884
0.312188
0.311702
0.310814
0.310174
0.310063
0.310455
0.311381
0.312421
0.313508
0.314419
0.31528
0.315921
0.31662
0.317069
0.317722
0.318141
0.318653
0.0972428
0.115464
0.106398
0.0927448
0.0889872
0.091137
0.0972005
0.103941
0.108956
0.112623
0.114542
0.115697
0.115214
0.113576
0.109965
0.103575
0.0938484
0.0784546
0.0678082
0.135329
0.269299
0.298896
0.20602
0.175629
0.166746
0.194334
0.0440159
0.0484619
0.0713105
0.126349
0.14266
0.291664
0.332352
0.292777
0.295173
0.0760108
0.109566
0.291386
0.428589
0.464564
0.344609
0.306463
0.277064
0.13472
0.0436679
0.0605688
0.1137
0.236005
0.340403
0.369961
0.303522
0.216541
0.183116
0.184729
0.201822
0.217528
0.228961
0.24208
0.255787
0.267638
0.276315
0.281337
0.282659
0.281619
0.280399
0.28204
0.28782
0.295922
0.304022
0.309237
0.311481
0.311739
0.311063
0.309749
0.308682
0.308166
0.308265
0.308969
0.310112
0.311288
0.312453
0.313404
0.314293
0.314951
0.315674
0.316141
0.316822
0.317256
0.317787
0.097245
0.115444
0.106375
0.0927054
0.0888885
0.0910113
0.0970312
0.103735
0.108673
0.112263
0.114068
0.115031
0.114415
0.112526
0.108514
0.101655
0.0912087
0.074727
0.0639795
0.136012
0.258032
0.277094
0.181254
0.149714
0.138277
0.139527
0.0498821
0.0540557
0.0596036
0.110179
0.152322
0.301029
0.32195
0.2777
0.279204
0.10453
0.160446
0.360071
0.457904
0.453814
0.319575
0.28013
0.23882
0.113848
0.0400137
0.0434011
0.0570825
0.10663
0.277462
0.35652
0.302355
0.215032
0.178547
0.180643
0.196585
0.209353
0.22284
0.239481
0.256276
0.269832
0.280132
0.28747
0.291058
0.291226
0.289833
0.289953
0.292764
0.298812
0.305264
0.308784
0.309481
0.308721
0.30703
0.305506
0.304702
0.304656
0.305328
0.306627
0.30811
0.309492
0.310771
0.311779
0.312711
0.313404
0.314172
0.314674
0.315407
0.315863
0.316438
0.0972495
0.115422
0.106342
0.0926526
0.0887723
0.0908662
0.096833
0.103484
0.108335
0.111819
0.1135
0.11423
0.113453
0.111269
0.106796
0.0994333
0.0882586
0.0707877
0.0592232
0.13078
0.241064
0.252913
0.155572
0.123637
0.108048
0.104487
0.0509377
0.060938
0.0601121
0.0552235
0.16961
0.277652
0.293005
0.259254
0.274566
0.11177
0.210009
0.419377
0.49194
0.408179
0.285642
0.247552
0.213132
0.119215
0.0509042
0.0569919
0.0591807
0.0660041
0.107691
0.254908
0.26649
0.190508
0.165069
0.171879
0.181637
0.193102
0.211897
0.237729
0.258327
0.27392
0.285412
0.294033
0.298984
0.299369
0.297189
0.295316
0.295597
0.298776
0.301803
0.302807
0.302396
0.300916
0.29935
0.298506
0.298533
0.299427
0.301218
0.303216
0.305172
0.306832
0.308267
0.309362
0.310369
0.311128
0.311976
0.312539
0.313355
0.313843
0.314496
0.0972562
0.115395
0.106294
0.0925724
0.0886229
0.0906818
0.0965814
0.103147
0.107897
0.111217
0.112751
0.113168
0.112178
0.109612
0.104584
0.0966253
0.0847515
0.0664061
0.0529476
0.118604
0.225133
0.237714
0.142318
0.111016
0.0920597
0.0826713
0.0337449
0.0510852
0.0512665
0.101773
0.236348
0.221481
0.241041
0.218763
0.249003
0.106106
0.217277
0.427563
0.488652
0.361454
0.254572
0.223248
0.214584
0.149738
0.0473626
0.0522484
0.0436263
0.0996466
0.122733
0.129151
0.15015
0.134474
0.124317
0.132188
0.138952
0.160026
0.198516
0.237388
0.266518
0.283759
0.294641
0.301824
0.304312
0.303853
0.300619
0.296885
0.29499
0.293269
0.290686
0.288206
0.28648
0.285718
0.285874
0.28702
0.289108
0.291778
0.294721
0.297515
0.300053
0.302106
0.303819
0.305118
0.306309
0.307225
0.308233
0.308917
0.309888
0.310427
0.311248
0.0972642
0.115376
0.106258
0.0924789
0.088488
0.0905166
0.0963619
0.10283
0.107497
0.11065
0.112059
0.11218
0.111001
0.108074
0.102615
0.0941777
0.0819767
0.0636387
0.0471452
0.0972342
0.21168
0.236239
0.149675
0.115739
0.0971983
0.0891014
0.0237838
0.0329205
0.0862338
0.266202
0.316848
0.170305
0.177624
0.177496
0.208471
0.0901059
0.180083
0.406343
0.474646
0.360199
0.264607
0.238492
0.236259
0.191475
0.0491816
0.0488668
0.0501111
0.123388
0.176506
0.192075
0.146338
0.121699
0.106798
0.0928757
0.102854
0.139146
0.195856
0.248236
0.282973
0.300462
0.306228
0.306276
0.304064
0.29825
0.291774
0.286647
0.282833
0.277724
0.272312
0.269058
0.268313
0.269631
0.272697
0.276372
0.280197
0.283879
0.287493
0.290779
0.293723
0.296139
0.298198
0.299803
0.301269
0.302414
0.303635
0.304477
0.305655
0.306247
0.307305
0.0972719
0.115365
0.106233
0.0924043
0.0884022
0.0904121
0.096221
0.102619
0.107223
0.110274
0.111587
0.111533
0.110213
0.107052
0.101318
0.0926434
0.0803306
0.0625702
0.0444351
0.0758911
0.198161
0.23875
0.166849
0.128704
0.113456
0.110486
0.0267097
0.069986
0.19941
0.335032
0.337249
0.155024
0.117959
0.145953
0.171667
0.097237
0.167097
0.391434
0.465305
0.364502
0.284668
0.270278
0.268477
0.228746
0.0550711
0.0538363
0.0392311
0.09077
0.139689
0.170414
0.16758
0.115264
0.0938585
0.0733269
0.0882524
0.136089
0.198935
0.256891
0.295611
0.310943
0.311121
0.302347
0.288751
0.276863
0.268484
0.264118
0.261708
0.258743
0.256084
0.25555
0.257012
0.260563
0.264988
0.26958
0.273932
0.277946
0.281802
0.285321
0.288531
0.291226
0.293571
0.295434
0.297132
0.298465
0.299861
0.300832
0.302184
0.302814
0.304089
0.0972786
0.115358
0.106207
0.0923437
0.0883353
0.0903367
0.0961133
0.102466
0.107006
0.109996
0.111204
0.111073
0.109611
0.106279
0.100312
0.0915491
0.0791365
0.0620637
0.0436798
0.0581027
0.178407
0.241333
0.193748
0.155865
0.144817
0.143384
0.0838432
0.175505
0.25647
0.349534
0.312519
0.155126
0.0814883
0.129781
0.15382
0.112986
0.168943
0.377948
0.457129
0.375302
0.305149
0.293618
0.312841
0.278999
0.0613827
0.0618775
0.046972
0.0990173
0.130356
0.154639
0.159459
0.1085
0.0820477
0.0642418
0.0845052
0.134601
0.1986
0.258063
0.298325
0.312619
0.308059
0.288757
0.267843
0.252257
0.243813
0.241382
0.241605
0.242682
0.244105
0.246621
0.250346
0.254861
0.259672
0.264314
0.268753
0.27288
0.276868
0.280568
0.284009
0.286946
0.289535
0.291615
0.293511
0.295006
0.296556
0.297643
0.299147
0.299824
0.30128
0.0972851
0.115339
0.106167
0.0922984
0.0882803
0.0902776
0.0960264
0.102356
0.106845
0.109798
0.110923
0.110742
0.10918
0.105721
0.0995982
0.0907697
0.078325
0.0618041
0.0436849
0.0473995
0.158061
0.24109
0.225764
0.178323
0.164078
0.204888
0.225731
0.249291
0.271766
0.33539
0.278941
0.151828
0.0598723
0.12208
0.150057
0.136072
0.172343
0.367982
0.451503
0.390598
0.32433
0.314259
0.338518
0.30701
0.067268
0.0647802
0.0597347
0.106174
0.132122
0.150345
0.15344
0.106581
0.078413
0.0618179
0.0837412
0.132763
0.194962
0.253148
0.292419
0.303644
0.295805
0.272284
0.24927
0.233387
0.226385
0.225901
0.228814
0.23332
0.23764
0.242027
0.246619
0.251291
0.255905
0.26033
0.264672
0.268832
0.272931
0.276779
0.280402
0.283525
0.286295
0.288536
0.290581
0.292201
0.293872
0.295053
0.296683
0.297399
0.299009
0.0972856
0.115336
0.106158
0.0922857
0.0882457
0.0902371
0.0959658
0.102284
0.106742
0.109671
0.110741
0.110526
0.108903
0.105359
0.099154
0.0902646
0.0778319
0.061621
0.0441782
0.040725
0.142483
0.23923
0.242415
0.203549
0.18924
0.230079
0.275752
0.150599
0.118455
0.112247
0.10952
0.11366
0.130122
0.173074
0.210109
0.266156
0.257661
0.269441
0.315916
0.262141
0.151869
0.0551915
0.0945811
0.133324
0.115915
0.111625
0.119059
0.108297
0.0574406
0.0131225
0.00734587
0.00905083
0.0172048
0.0592539
0.142661
0.174398
0.360412
0.445586
0.401186
0.336482
0.326337
0.368913
0.347532
0.212363
0.0566858
0.0495952
0.068183
0.0755613
0.0486732
0.0390519
0.0351295
0.0398728
0.0706833
0.0640709
0.0670304
0.108559
0.135185
0.15102
0.150654
0.106533
0.078194
0.0619249
0.0831918
0.1294
0.188196
0.243271
0.279928
0.289539
0.281
0.257767
0.23632
0.222448
0.217279
0.217985
0.222618
0.228723
0.234401
0.239601
0.244468
0.249041