/*--------------------------------*- C++ -*----------------------------------*\
| =========                 |                                                 |
| \\      /  F ield         | OpenFOAM: The Open Source CFD Toolbox           |
|  \\    /   O peration     | Version:  v2006                                 |
|   \\  /    A nd           | Website:  www.openfoam.com                      |
|    \\/     M anipulation  |                                                 |
\*---------------------------------------------------------------------------*/
FoamFile
{
    version     2.0;
    format      ascii;
    class       volScalarField;
    location    "0.57";
    object      omega;
}
// * * * * * * * * * * * * * * * * * * * * * * * * * * * * * * * * * * * * * //

dimensions      [0 0 -1 0 0 0 0];


internalField   nonuniform List<scalar> 
374400
(
281.792
307.535
296.628
279.922
277.291
281.667
292.596
304.589
314.772
323.098
330.351
336.9
343.012
348.781
354.431
359.975
365.457
370.851
375.911
380.357
383.936
386.638
388.757
390.285
391.513
392.441
393.059
393.992
395.247
396.831
399.101
401.417
403.097
404.447
405.467
406.145
407.166
408.535
410.248
412.669
415.092
416.829
418.21
419.247
419.931
420.961
422.331
424.041
425.736
427.087
428.754
430.411
431.716
432.686
433.325
434.281
435.547
437.108
439.266
441.365
442.848
444.01
444.876
445.444
446.295
447.424
448.815
450.741
452.62
453.954
454.999
455.782
456.294
457.064
458.085
459.348
461.098
463.555
466.936
471.146
475.761
480.39
484.887
489.068
492.631
495.478
497.754
499.598
501.119
502.39
503.469
504.396
505.199
505.895
506.496
507.011
507.449
507.821
508.134
508.395
508.61
508.781
508.917
509.022
509.104
509.166
509.217
509.256
509.289
509.315
509.342
509.364
509.389
509.412
509.428
509.563
509.358
281.794
307.533
296.623
279.912
277.275
281.648
292.571
304.561
314.745
323.074
330.335
336.894
343.018
348.804
354.474
360.044
365.556
370.982
376.075
380.551
384.154
386.873
389.005
390.541
391.776
392.709
393.33
394.267
395.528
397.119
399.398
401.722
403.406
404.76
405.782
406.461
407.484
408.856
410.571
412.994
415.418
417.155
418.535
419.571
420.255
421.284
422.652
424.359
426.05
427.398
429.06
430.713
432.013
432.98
433.616
434.568
435.829
437.383
439.531
441.619
443.093
444.248
445.109
445.673
446.519
447.64
449.02
450.933
452.799
454.123
455.161
455.937
456.445
457.209
458.221
459.473
461.208
463.646
467.002
471.181
475.766
480.368
484.846
489.017
492.578
495.43
497.712
499.567
501.099
502.383
503.475
504.416
505.232
505.939
506.55
507.073
507.519
507.896
508.214
508.478
508.693
508.864
508.998
509.102
509.183
509.245
509.293
509.33
509.364
509.391
509.416
509.439
509.464
509.487
509.502
509.639
509.435
281.796
307.524
296.607
279.884
277.233
281.602
292.517
304.502
314.686
323.022
330.298
336.877
343.03
348.85
354.567
360.193
365.77
371.27
376.436
380.979
384.637
387.395
389.555
391.111
392.36
393.303
393.932
394.879
396.152
397.758
400.056
402.396
404.092
405.453
406.48
407.162
408.19
409.566
411.287
413.714
416.139
417.875
419.253
420.287
420.969
421.996
423.36
425.061
426.744
428.085
429.738
431.378
432.668
433.627
434.258
435.202
436.451
437.989
440.112
442.173
443.628
444.768
445.616
446.173
447.006
448.111
449.47
451.352
453.184
454.484
455.503
456.265
456.764
457.514
458.508
459.738
461.441
463.833
467.123
471.223
475.724
480.25
484.67
488.802
492.345
495.197
497.492
499.366
500.924
502.237
503.359
504.33
505.174
505.905
506.538
507.079
507.539
507.927
508.252
508.52
508.736
508.906
509.037
509.137
509.213
509.27
509.315
509.349
509.378
509.403
509.429
509.449
509.474
509.498
509.513
509.649
509.444
281.8
307.512
296.583
279.836
277.16
281.52
292.421
304.395
314.574
322.916
330.212
336.82
343.013
348.885
354.671
360.385
366.067
371.685
376.974
381.629
385.377
388.201
390.41
391.999
393.274
394.236
394.877
395.841
397.137
398.771
401.103
403.473
405.187
406.562
407.598
408.286
409.321
410.705
412.435
414.872
417.3
419.037
420.414
421.445
422.125
423.147
424.504
426.195
427.865
429.194
430.83
432.451
433.725
434.67
435.291
436.22
437.448
438.96
441.045
443.065
444.488
445.6
446.427
446.969
447.78
448.854
450.175
452.004
453.784
455.045
456.032
456.769
457.25
457.975
458.934
460.121
461.765
464.079
467.266
471.242
475.613
480.024
484.357
488.436
491.959
494.819
497.14
499.054
500.655
502.013
503.181
504.196
505.083
505.853
506.518
507.087
507.57
507.976
508.311
508.582
508.796
508.961
509.083
509.174
509.241
509.288
509.324
509.352
509.376
509.397
509.419
509.438
509.462
509.485
509.501
509.64
509.437
281.806
307.492
296.545
279.76
277.042
281.386
292.262
304.214
314.379
322.722
330.037
336.675
342.916
348.856
354.733
360.57
366.401
372.194
377.669
382.498
386.387
389.314
391.601
393.244
394.56
395.552
396.212
397.205
398.537
400.213
402.6
405.016
406.76
408.156
409.207
409.903
410.951
412.35
414.095
416.547
418.981
420.716
422.089
423.116
423.792
424.809
426.158
427.835
429.487
430.8
432.41
434.002
435.25
436.176
436.784
437.692
438.893
440.367
442.394
444.349
445.723
446.796
447.593
448.116
448.899
449.935
451.207
452.961
454.66
455.862
456.802
457.506
457.966
458.659
459.576
460.71
462.278
464.478
467.505
471.286
475.456
479.69
483.89
487.893
491.39
494.265
496.626
498.593
500.258
501.686
502.923
504.003
504.948
505.772
506.483
507.091
507.604
508.032
508.379
508.657
508.871
509.03
509.145
509.225
509.28
509.317
509.344
509.362
509.38
509.395
509.413
509.431
509.454
509.477
509.492
509.631
509.429
281.816
307.462
296.486
279.644
276.86
281.179
292.012
303.924
314.059
322.387
329.711
336.373
342.664
348.679
354.669
360.66
366.697
372.738
378.484
383.576
387.683
390.774
393.183
394.91
396.292
397.331
398.022
399.06
400.45
402.195
404.67
407.164
408.958
410.389
411.463
412.174
413.243
414.666
416.437
418.916
421.364
423.102
424.474
425.496
426.169
427.178
428.514
430.17
431.796
433.085
434.661
436.215
437.429
438.326
438.914
439.791
440.947
442.365
444.312
446.183
447.492
448.508
449.259
449.75
450.483
451.451
452.639
454.28
455.867
456.986
457.854
458.501
458.922
459.554
460.391
461.426
462.864
464.892
467.697
471.214
475.113
479.122
483.172
487.107
490.606
493.527
495.956
498.001
499.745
501.253
502.573
503.736
504.758
505.651
506.425
507.087
507.643
508.099
508.463
508.745
508.954
509.101
509.199
509.261
509.296
509.315
509.327
509.334
509.344
509.355
509.371
509.386
509.411
509.435
509.453
509.595
509.397
281.83
307.42
296.401
279.476
276.592
280.871
291.636
303.483
313.556
321.842
329.151
335.817
342.144
348.231
354.342
360.524
366.821
373.206
379.341
384.821
389.262
392.606
395.207
397.068
398.552
399.665
400.405
401.514
402.994
404.847
407.459
410.072
411.94
413.424
414.534
415.268
416.367
417.825
419.633
422.146
424.607
426.344
427.708
428.722
429.388
430.385
431.702
433.327
434.912
436.163
437.686
439.18
440.342
441.198
441.759
442.595
443.695
445.039
446.87
448.609
449.821
450.76
451.457
451.912
452.594
453.493
454.59
456.087
457.513
458.517
459.298
459.883
460.265
460.842
461.605
462.545
463.833
465.632
468.097
471.194
474.676
478.332
482.153
485.996
489.502
492.495
495.029
497.193
499.063
500.693
502.124
503.385
504.502
505.486
506.34
507.065
507.667
508.155
508.539
508.827
509.031
509.167
509.248
509.287
509.299
509.298
509.292
509.288
509.288
509.294
509.307
509.323
509.348
509.374
509.396
509.542
509.347
281.85
307.361
296.284
279.24
276.214
280.434
291.094
302.836
312.805
320.999
328.245
334.87
341.194
347.321
353.542
359.928
366.551
373.383
380.076
386.145
391.105
394.855
397.77
399.849
401.502
402.738
403.557
404.783
406.412
408.442
411.274
414.077
416.064
417.633
418.799
419.567
420.714
422.226
424.089
426.655
429.141
430.881
432.238
433.241
433.897
434.877
436.164
437.746
439.278
440.48
441.934
443.353
444.452
445.257
445.78
446.558
447.575
448.814
450.501
452.095
453.193
454.03
454.64
455.035
455.618
456.382
457.309
458.586
459.795
460.632
461.263
461.723
462.019
462.457
463.033
463.747
464.747
466.179
468.174
470.714
473.639
476.917
480.583
484.458
488.083
491.235
493.923
496.213
498.177
499.89
501.42
502.798
504.044
505.157
506.127
506.949
507.626
508.166
508.578
508.874
509.068
509.178
509.224
509.227
509.208
509.177
509.152
509.135
509.129
509.133
509.148
509.169
509.201
509.234
509.266
509.423
509.238
281.877
307.283
296.124
278.926
275.7
279.834
290.346
301.926
311.725
319.758
326.856
333.353
339.592
345.683
351.947
358.508
365.488
372.91
380.359
387.311
393.114
397.508
400.934
403.376
405.309
406.748
407.701
409.123
411
413.321
416.514
419.617
421.787
423.477
424.718
425.533
426.739
428.315
430.243
432.859
435.346
437.061
438.383
439.35
439.98
440.915
442.136
443.622
445.043
446.151
447.474
448.749
449.725
450.435
450.896
451.581
452.473
453.555
454.998
456.323
457.234
457.935
458.458
458.8
459.318
459.999
460.824
461.912
462.889
463.563
464.078
464.463
464.714
465.095
465.585
466.161
466.894
467.84
469.042
470.579
472.529
475.071
478.39
482.221
486.016
489.428
492.374
494.863
496.955
498.77
500.441
502.002
503.433
504.706
505.805
506.726
507.474
508.064
508.507
508.813
508.999
509.084
509.096
509.065
509.004
508.947
508.902
508.877
508.871
508.879
508.904
508.936
508.985
509.03
509.076
509.248
509.085
281.909
307.186
295.935
278.532
275.054
279.079
289.386
300.753
310.296
318.069
324.902
331.139
337.129
343.028
349.176
355.776
363.06
371.117
379.546
387.72
394.696
400.195
404.459
407.489
409.884
411.658
412.83
414.57
416.851
419.652
423.447
427.058
429.55
431.457
432.827
433.717
435.02
436.688
438.692
441.297
443.687
445.32
446.571
447.488
448.085
448.974
450.137
451.55
452.894
453.935
455.153
456.312
457.182
457.804
458.202
458.784
459.541
460.454
461.702
462.863
463.654
464.243
464.657
464.917
465.289
465.754
466.286
466.988
467.579
467.924
468.106
468.203
468.244
468.289
468.348
468.425
468.54
468.732
468.828
468.949
469.59
471.589
475.117
479.429
483.786
487.625
490.665
493.121
495.205
497.071
498.883
500.652
502.309
503.791
505.07
506.14
507.007
507.686
508.186
508.517
508.697
508.754
508.731
508.645
508.549
508.468
508.416
508.399
508.411
508.445
508.507
508.569
508.653
508.724
508.802
509.008
508.889
281.944
307.084
295.714
278.101
274.324
278.218
288.283
299.388
308.58
316.029
322.431
328.27
333.766
339.246
344.974
351.287
358.588
367.017
376.355
385.982
394.67
401.518
407.062
411.082
414.293
416.692
418.274
420.637
423.706
427.436
432.273
436.526
439.258
441.217
442.571
443.432
444.648
446.157
447.91
450.13
452.088
453.366
454.315
455.003
455.452
456.117
457.003
458.104
459.15
459.961
460.891
461.733
462.32
462.719
462.971
463.343
463.794
464.288
464.884
465.434
465.868
466.281
466.657
466.921
467.384
468.052
468.967
470.294
471.543
472.435
473.11
473.563
473.86
474.265
474.604
474.723
474.58
473.642
471.793
469.194
467.323
467.785
470.624
475.574
480.702
485.047
488.191
490.607
492.716
494.68
496.654
498.661
500.587
502.312
503.789
505.026
506.044
506.852
507.458
507.866
508.093
508.159
508.123
508.009
507.899
507.821
507.794
507.811
507.879
507.967
508.091
508.199
508.341
508.456
508.583
508.838
508.786
281.982
306.976
295.477
277.665
273.534
277.305
287.087
297.914
306.675
313.737
319.535
324.843
329.584
334.272
339.173
344.614
351.242
359.367
369.224
380.249
391.135
400.294
408.158
413.733
418.17
421.365
423.405
426.329
429.781
433.63
437.311
439.439
440.364
440.755
440.955
441.047
441.196
441.376
441.629
442.237
443.152
443.957
444.627
445.139
445.484
445.982
446.617
447.272
447.769
447.813
447.585
446.989
446.059
445.285
444.72
443.841
442.865
442.16
442.12
442.845
444.255
445.672
446.734
447.456
448.49
449.751
451.134
453.183
455.511
457.241
458.566
459.528
460.12
460.98
462.199
463.779
465.601
466.474
465.617
462.084
459.358
460.281
464.85
471.689
477.936
482.482
485.322
487.174
489.06
491.022
493.078
495.341
497.618
499.712
501.522
503.068
504.372
505.431
506.237
506.796
507.141
507.278
507.275
507.188
507.097
507.062
507.093
507.194
507.361
507.535
507.748
507.93
508.151
508.322
508.522
508.823
508.852
282.017
306.874
295.245
277.245
272.723
276.405
285.847
296.446
304.706
311.293
316.456
320.999
324.817
328.29
331.835
335.579
340.381
346.832
355.882
367.705
381.579
393.006
402.933
410.287
415.012
417.98
419.735
422.125
424.62
428.035
427.87
426.169
423.483
420.494
418.162
416.538
414.211
411.172
408.199
404.9
403.162
403.34
404.055
405.175
406.282
408.295
411.622
416.339
420.707
423.787
426.233
427.16
426.903
426.36
425.719
424.452
422.576
419.881
416.639
415.65
416.161
418.353
421.886
424.46
428.936
435.648
446.312
461.295
473.139
479.843
483.621
485.525
486.552
487.343
487.518
486.714
484.969
480.636
469.619
455.003
445.459
445.789
453.104
463.977
472.658
477.745
479.965
480.853
481.999
484.048
486.545
489.409
492.552
495.512
498.031
500.12
501.858
503.283
504.403
505.247
505.855
506.196
506.317
506.298
506.263
506.279
506.398
506.602
506.881
507.16
507.476
507.743
508.05
508.283
508.56
508.891
509.014
282.047
306.788
295.062
276.847
272.017
275.586
284.733
295.123
302.856
309.047
313.551
317.248
320.106
322.173
323.832
325.234
326.826
329.77
335.908
348.689
363.828
381.025
398.708
416.496
432.268
447.343
459.97
481.168
513.841
545.19
558.466
555.086
547.817
537.65
529.653
524.154
516.328
506.124
495.044
477.791
463.358
454.893
451.526
451.87
452.749
455.614
462.368
472.214
480.53
485.768
488.844
488.627
487.61
485.989
484.698
482.498
479.572
474.512
468.092
468.251
471.389
478.171
481.998
483.098
482.505
476.957
455.897
442.252
442.859
447.41
455.677
461.242
464.692
469.268
474.236
479.197
482.835
482.331
472.044
449.096
432.572
431.216
440.228
453.778
463.521
468.715
470.329
470.309
470.511
472.097
475.083
478.643
482.752
486.881
490.39
493.297
495.798
497.985
499.893
501.537
502.91
503.889
504.473
504.749
504.926
505.11
505.398
505.748
506.173
506.578
507.01
507.368
507.762
508.051
508.4
508.756
508.96
282.074
306.718
294.964
276.479
271.507
274.925
283.913
294.003
301.466
307.164
311.253
314.201
316.051
317.093
316.671
315.656
313.571
311.166
313.396
324.718
350.074
396.877
481.296
548.327
594.894
625.28
642.788
668.93
689.799
702.521
694.613
674.775
653.009
633.693
619.247
609.57
596.008
578.31
557.315
522.38
487.662
468.499
460.066
460.609
462.425
468.983
484.616
514.498
542.805
561.959
574.246
571.479
563.403
551.894
543.795
529.837
511.149
485.08
430.351
339.63
289.996
288.454
293.318
296.613
294.856
282.379
267.902
265.915
273.179
285.256
296.214
304.815
310.622
319.86
332.497
349.954
373.386
400.099
413.459
408.219
405.059
415.254
434.845
450.754
459.292
461.405
460.351
457.262
454.567
453.849
455.235
458.759
463.081
468.078
473.405
478.668
483.66
488.26
492.412
496.046
499.028
501.153
502.475
503.187
503.612
503.957
504.377
504.846
505.385
505.889
506.407
506.826
507.278
507.6
507.994
508.357
508.608
282.088
306.686
294.898
276.23
271.131
274.461
283.353
293.188
300.51
305.821
309.554
312.086
313.101
313.067
311.679
308.34
303.081
294.755
292.196
306.318
370.261
508.195
601.553
638.581
659.489
672.162
681.057
695.808
696.136
687.066
663.216
638.308
616.911
595.115
576.534
562.908
541.418
512.268
470.629
410.925
358.848
363.134
377.575
395.643
415.418
437.73
483.856
521.978
566.645
594.146
590.098
568.902
531.043
501.013
481.392
450.176
397.543
336.896
292.13
275.828
306.031
346.337
353.926
346.621
336.002
331.836
336.535
345.87
353.93
357.156
357.352
356.42
354.732
351.262
345.679
336.775
323.665
324.763
345.133
366.235
387.084
410.813
432.646
447.8
454.407
453.77
450.509
446.124
442.653
440.524
439.419
439.328
440.865
445.195
452.191
461.308
470.866
479.472
486.867
492.844
497.263
500.136
501.734
502.455
502.805
503.095
503.51
504.014
504.611
505.169
505.736
506.185
506.664
506.994
507.41
507.769
508.042
282.091
306.684
294.838
276.075
270.861
274.143
282.989
292.625
299.84
304.943
308.311
310.662
310.991
310.39
308.099
303.146
295.328
283.007
274.385
301.624
433.538
557.751
611.827
589.426
557.198
561.495
578.692
582.151
574.891
554.329
543.368
523.315
493.38
465.337
443.808
429.47
406.682
359.189
311.37
278.096
284.145
315.122
348.028
372.696
394.534
427.55
467.446
532.806
565.768
564.811
532.964
447.243
360.147
315.046
298.32
295.379
314.647
332.658
353.74
463.756
511.766
520.112
498.385
473.984
436.382
410.664
406.029
412.59
424.221
433.279
440.057
444.825
447.782
451.308
453.438
452.252
441.248
390.244
362.942
366.35
382.927
407.525
426.662
439.858
444.438
442.709
442.268
442.411
442.048
440.613
438.201
435.715
435.22
438.187
445.997
456.792
468.312
478.504
486.971
493.478
497.937
500.512
501.676
501.995
502.088
502.257
502.652
503.19
503.839
504.437
505.037
505.5
505.996
506.327
506.761
507.111
507.407
282.094
306.684
294.788
275.956
270.678
273.927
282.74
292.245
299.337
304.362
307.422
309.629
309.533
308.526
305.548
299.427
289.836
274.381
261.637
310.921
465.706
558.831
534.893
501.049
499.966
520.255
546.98
541.298
517.917
497.871
460.943
386.946
342.618
315.199
293.397
275.946
255.594
226.431
214.677
281.875
299.618
283.828
338.548
413.503
456.11
468.27
503.429
514.052
494.369
431.755
329.235
269.646
261.272
263.251
271.524
292.93
327.739
376.604
492.799
558.073
557.02
546.066
510.52
482.072
439.019
413.583
410.933
421.524
434.402
444.356
453.296
460.774
466.056
473.185
480.168
491.4
493.183
465.994
398.358
374.998
382.965
402.384
419.213
431.631
435.727
437.244
442.434
447.556
449.971
449.84
447.183
443.522
441.946
444.435
452.227
463.08
474.074
483.165
490.421
495.828
499.283
500.975
501.453
501.37
501.255
501.347
501.772
502.378
503.083
503.719
504.343
504.818
505.327
505.661
506.115
506.455
506.778
282.102
306.679
294.744
275.848
270.54
273.762
282.539
291.956
298.927
303.899
306.744
308.74
308.461
307.056
303.495
296.486
285.511
267.469
252.146
319.498
473.775
535.739
501.796
465.984
448.838
503.704
519.993
466.182
406.529
330.537
241.581
208.346
215.358
204.704
198.409
199.888
208.398
188.65
242.683
294.238
282.871
424.637
475.446
524.189
518.254
470.012
446.378
357.69
280.206
286.979
271.875
262.157
258.412
256.924
262.953
302.123
368.666
485.224
565.899
572.242
548.046
533.851
477.533
445.532
381.395
360.696
350.747
350.759
361.515
378.189
397.559
412.776
429.458
451.266
471.202
492.314
514.75
503.096
438.341
389.543
384.317
396.088
412.818
426.208
432.29
438.37
447.819
455.102
459.198
459.888
458.004
454.872
453.451
455.888
463.112
472.785
482.206
489.219
494.439
498.118
500.228
500.944
500.873
500.477
500.271
500.383
500.886
501.571
502.336
503.005
503.652
504.138
504.661
505
505.475
505.808
506.162
282.113
306.651
294.688
275.761
270.434
273.632
282.373
291.74
298.618
303.545
306.253
308.066
307.658
305.976
301.964
294.339
282.359
262.385
245.843
325.774
474.988
519.709
458.29
423.996
413.807
490.426
493.021
375.978
281.361
183.725
146.227
151.748
140.818
130.486
144.633
183.953
201.779
195.46
274.475
318.128
386.974
500.771
492.589
525.922
487.778
309.601
227.336
266.242
270.797
264.966
246.416
231.746
227.716
235.886
235.168
306.716
423.905
546.015
600.442
551.142
527.919
510.461
429.34
408.771
288.096
246.437
233.018
230.883
239.325
253.929
279.852
304.602
341.503
408.037
448.562
486.931
522.778
520.588
463.201
401.264
384.843
392.011
408.754
423.537
431.674
440.732
451.422
459.677
464.672
466.211
465.258
463.062
462.118
464.526
471.146
479.785
488.01
493.623
497.271
499.417
500.335
500.346
499.881
499.367
499.214
499.428
500.063
500.829
501.649
502.347
503.012
503.508
504.046
504.392
504.89
505.217
505.602
282.115
306.644
294.676
275.728
270.366
273.544
282.256
291.598
298.419
303.31
305.932
307.62
307.125
305.264
300.959
292.946
280.316
259.118
242.235
329.101
470.951
507.627
443.339
409.169
394.222
440.932
195.083
202.079
217.683
308.095
341.692
454.7
512.151
487.966
510.664
227.7
288.41
447.053
566.563
608.251
541.654
514.852
494.382
375.459
292.823
341.123
418.465
476.498
528.556
530.874
476.347
409.041
384.83
389.338
406.209
421.774
431.128
441.297
452.567
461.509
467.413
469.915
469.673
467.993
467.168
469.352
475.376
483.37
491.044
495.952
498.618
499.84
500.063
499.665
498.96
498.462
498.386
498.712
499.456
500.283
501.143
501.861
502.54
503.044
503.593
503.946
504.459
504.788
505.189
282.112
306.649
294.682
275.699
270.264
273.411
282.08
291.389
298.129
302.959
305.459
306.959
306.335
304.212
299.476
290.899
277.321
254.338
237.162
331.442
464.828
489.412
407.158
376.34
366.819
395.515
193.583
202.648
242.827
320.783
340.452
483.982
516.457
485.034
487.115
249.111
299.167
484.296
586.312
610.135
526.014
496.305
472.166
330.84
192.703
224.674
304.005
435.14
521.586
543.167
492.08
416.478
383.702
385.524
402.85
418.068
428.953
441.068
453.269
463.481
470.751
474.835
475.837
474.924
473.954
475.432
480.347
487.058
493.626
497.768
499.521
499.704
499.151
498.104
497.262
496.866
496.958
497.535
498.45
499.386
500.309
501.059
501.76
502.278
502.847
503.215
503.751
504.093
504.509
282.115
306.623
294.651
275.642
270.119
273.229
281.842
291.11
297.751
302.487
304.844
306.097
305.299
302.842
297.549
288.27
273.518
248.455
230.677
332.252
455.093
471.39
382.3
348.053
334.768
336.241
205.172
213.349
222.981
300.121
351.332
491.737
508.468
472.497
473.862
291.709
360.404
537.696
605.932
603.052
506.486
474.423
438.131
304.378
185.273
192.377
218.589
294.677
471.264
533.218
491.077
414.825
378.539
381.164
397.602
410.202
423.226
438.681
453.649
465.318
473.957
479.969
482.827
482.912
481.774
481.942
484.354
489.374
494.592
497.38
497.909
497.283
495.925
494.715
494.088
494.066
494.625
495.674
496.86
497.961
498.975
499.772
500.508
501.056
501.663
502.058
502.636
502.996
503.448
282.122
306.594
294.606
275.566
269.949
273.018
281.563
290.768
297.3
301.905
304.103
305.057
304.046
301.191
295.251
285.196
269.206
242.086
222.353
325.943
440.06
450.598
354.65
316.913
296.782
291.982
207.132
225.71
224.221
215.401
370.371
472.361
485.119
456.636
469.903
301.61
411.446
579.906
627.832
571.958
478.665
445.824
414.088
311.655
207.325
218.713
222.55
234.284
295.988
451.261
460.919
389.927
363.942
371.798
382.199
394.132
412.858
437.091
455.394
468.752
478.347
485.394
489.341
489.598
487.797
486.312
486.602
489.273
491.745
492.557
492.218
491.013
489.754
489.089
489.128
489.877
491.338
492.949
494.517
495.842
496.982
497.851
498.65
499.252
499.924
500.37
501.015
501.401
501.916
282.131
306.559
294.543
275.451
269.729
272.75
281.208
290.307
296.716
301.113
303.126
303.673
302.38
299.002
292.264
281.264
263.987
234.798
210.864
310.779
425.465
437.02
339.508
300.711
274.605
260.694
171.19
207.68
208.058
288.386
436.129
422.351
440.426
419.792
447.557
294.313
418.109
585.158
625.479
538.488
452.367
423.83
415.633
348.398
200.506
209.927
192.778
286.283
316.74
324.297
347.816
329.223
316.86
326.59
335.028
359.478
399.977
436.87
462.497
476.986
485.924
491.702
493.655
493.243
490.588
487.571
486.063
484.681
482.604
480.605
479.213
478.608
478.757
479.731
481.472
483.678
486.086
488.357
490.405
492.053
493.424
494.463
495.413
496.145
496.948
497.493
498.266
498.694
499.345
282.142
306.536
294.493
275.316
269.531
272.51
280.898
289.874
296.181
300.366
302.219
302.382
300.832
296.956
289.579
277.791
259.784
230.076
199.648
282.216
412.758
435.692
348.013
306.876
281.931
270.297
146.293
169.375
266.134
462.249
504.143
371.237
378.939
378.739
409.876
271.869
380.725
570.27
616.318
537.742
461.161
438.002
436.016
393.153
204.23
203.653
205.668
316.945
377.793
394.013
344.681
314.378
294.584
275.01
289.422
336.084
397.609
446.786
476.499
490.689
495.214
495.225
493.419
488.691
483.406
479.198
476.04
471.761
467.239
464.539
463.962
465.141
467.779
470.895
474.105
477.175
480.165
482.865
485.267
487.227
488.892
490.187
491.368
492.288
493.269
493.944
494.887
495.361
496.206
282.153
306.522
294.46
275.209
269.405
272.358
280.699
289.586
295.814
299.868
301.6
301.531
299.792
295.588
287.798
275.591
257.259
228.227
194.175
250.46
399.581
437.972
367.073
323.205
303.925
300.01
153.969
240.885
400.854
518.115
519.932
354.609
310.172
344.016
372.462
282.372
367.037
559.599
610.162
540.989
478.198
466.071
464.608
429.353
215.525
213.218
183.602
272.946
336.5
370.862
367.941
306.017
276.436
245.385
269.199
332.715
400.833
454.56
487.012
499.086
499.08
491.898
480.821
470.959
463.918
460.228
458.17
455.6
453.324
452.91
454.25
457.382
461.222
465.154
468.844
472.224
475.446
478.366
481.011
483.218
485.131
486.644
488.021
489.1
490.228
491.012
492.1
492.608
493.631
282.163
306.513
294.425
275.122
269.306
272.248
280.547
289.376
295.523
299.5
301.096
300.925
298.994
294.55
286.408
274.012
255.411
227.347
192.616
220.466
379.512
440.329
395.099
354.942
342.376
340.707
262.739
376.429
453.911
529.139
500.704
354.704
259.279
324.93
353.069
303.795
368.989
549.77
604.702
549.023
495.024
485.609
501.088
473.521
226.898
227.845
199.431
284.856
325.391
353.657
359.037
297.241
259.25
230.641
263.915
331.039
400.594
455.664
489.284
500.438
496.571
480.693
463.159
449.722
442.352
440.258
440.502
441.495
442.799
445.085
448.426
452.425
456.63
460.643
464.445
467.951
471.316
474.414
477.274
479.699
481.826
483.527
485.074
486.291
487.55
488.432
489.649
490.197
491.371
282.172
306.487
294.372
275.056
269.225
272.162
280.424
289.225
295.307
299.239
300.726
300.489
298.423
293.798
285.418
272.883
254.147
226.895
192.623
200.256
357.629
440.115
426.032
379.215
364.018
406.024
426.122
447.471
467.114
518.45
473.271
350.88
223.753
315.66
349.43
332.585
372.567
542.371
600.878
559.96
510.201
502.252
521.092
496.437
237.007
232.858
223.432
294.685
327.613
348.867
352.357
294.833
253.997
226.779
262.917
328.889
397.056
451.471
484.539
493.309
486.676
466.895
446.974
432.789
426.484
426.126
428.903
433.069
437.021
441.002
445.128
449.281
453.339
457.195
460.945
464.51
467.994
471.24
474.271
476.866
479.155
480.998
482.675
484
485.365
486.327
487.651
488.232
489.536
282.172
306.483
294.36
275.038
269.175
272.103
280.339
289.127
295.169
299.07
300.485
300.204
298.054
293.308
284.8
272.148
253.376
226.576
193.632
186.538
339.943
438.441
441.269
404.743
390.453
429.88
470.217
349.13
310.53
302.537
298.988
304.419
325.18
373.948
411.354
462.196
454.838
465.214
503.31
458.959
350.911
215.17
279.135
329.863
308.036
302.2
311.59
297.189
218.411
113.068
91.0898
98.2466
126.855
222.691
340.151
374.643
536.665
596.764
567.45
519.591
511.735
543.8
527.848
413.815
217.831
204.868
238.438
250.462
203.103
183.233
174.543
185.128
242.721
231.626
236.148
297.864
331.314
349.722
349.257
294.852
253.836
227.138
262.136
324.828
390.273
442.745
474.228
481.867
474.487
454.45
435.385
422.701
417.965
418.722
423.169
428.869
434.094
438.825
443.208
447.285
451.148
454.836
458.509
462.096
465.677
469.037
472.191
474.903
477.301
479.241
481.006
482.406
483.844
484.864
486.261
486.872
488.262
282.168
306.492
294.368
275.034
269.101
272.012
280.21
288.984
294.97
298.828
300.136
299.789
297.521
292.595
283.917
271.075
252.262
226.089
195.782
174.711
287.3
430.757
472.642
439.9
426.775
450.541
483.876
461.361
461.215
461.857
471.413
480.997
497.769
498.181
492.936
481.292
424.662
459.138
488.77
438.844
352.758
265.797
223.967
257.784
284.351
299.607
318.16
316.69
276.878
167.131
113.795
125.951
134.398
240.18
336.271
364.113
520.236
586.018
583.305
537.181
531.157
560.575
555.513
468.704
255.458
256.748
285.354
277.875
234.509
217.19
189.059
222.585
239.013
212.332
251.705
299.502
335.626
355.54
348.803
298.509
259.272
231.428
258.556
313.613
372.88
421.137
449.435
456.03
449.106
432.053
417.404
409.304
408.612
412.035
418.41
425.054
431.061
436.221
440.589
444.36
447.841
451.207
454.71
458.302
462.028
465.592
468.952
471.845
474.413
476.5
478.403
479.92
481.473
482.586
484.094
484.763
486.279
282.168
306.474
294.346
275.008
269.001
271.887
280.044
288.794
294.719
298.52
299.693
299.266
296.85
291.689
282.805
269.7
250.834
225.364
198.389
175.649
210.049
386.532
470.755
500.529
519.631
532.946
548.798
569.545
574.885
583.774
599.679
597.36
577.83
527.063
458.672
382.705
388.094
457.175
458.894
425.278
388.499
380.008
357.461
328.508
318.003
302.612
304.924
294.808
227.452
147.808
133.061
143.21
143.612
204.057
300.588
315.505
468.133
572.374
605.477
563.471
555.371
602.982
592.416
525.485
306.279
267.308
298.615
297.215
266.297
246.441
216.984
207.924
206.046
200.561
269.333
304.95
347.264
369.757
355.093
304.374
262.278
229.774
240.882
279.502
326.605
366.616
392.986
402.853
402.814
399.078
397.203
398.323
402.513
409.317
416.762
423.666
429.412
433.976
437.571
440.559
443.35
446.202
449.426
452.965
456.83
460.641
464.3
467.477
470.304
472.605
474.706
476.391
478.113
479.362
481.038
481.789
483.492
282.172
306.452
294.315
274.966
268.894
271.747
279.864
288.566
294.431
298.157
299.18
298.662
296.069
290.653
281.499
268.108
249.068
224.082
199.526
185.629
174.581
247.794
385.824
458.988
503.416
531.395
556.423
591.64
629.265
639.32
610.77
524.55
416.205
332.813
312.331
326.982
402.067
452.426
434.235
423.27
506.24
545.713
537.063
510.813
473.474
371.142
248.176
189.93
162.844
148.4
143.166
174.468
182.991
187.695
207.18
219.421
329.758
516.349
591.256
586.434
587.547
606.999
583.823
510.181
288.364
286.954
320.717
323.994
287.397
260.175
223.022
208.725
212.245
250.713
299.435
332.882
372.533
392.635
375.456
315.4
262.62
208.657
179.734
209.744
261.784
303.933
334.069
355.128
369.613
379.907
388.156
395.747
403.229
410.806
418.115
424.34
428.961
432.058
434.175
435.868
437.667
439.861
442.745
446.189
450.16
454.204
458.172
461.66
464.798
467.379
469.761
471.688
473.67
475.109
477.042
477.904
479.867
282.179
306.426
294.278
274.895
268.774
271.583
279.661
288.279
294.085
297.701
298.556
297.912
295.103
289.355
279.888
266.021
246.57
221.134
198.949
191.306
186.586
223.391
321.919
384.437
423.603
461.957
486.435
522.113
558.688
580.634
569.232
525.723
464.551
403.978
358.681
364.4
407.815
407.663
414.83
532.716
646.391
637.555
633.688
622.205
591.147
451.175
285.204
274.211
260.517
258.222
265.109
273.552
272.495
270.239
267.344
258.711
251.527
305.505
492.684
547.933
557.029
555.655
516.562
435.519
264.773
281.458
308.994
306.603
267.106
253.264
249.661
265.618
292.368
328.568
364.607
382.837
391.414
388.165
367.107
298.322
247.743
226.232
240.472