/*--------------------------------*- C++ -*----------------------------------*\
| =========                 |                                                 |
| \\      /  F ield         | OpenFOAM: The Open Source CFD Toolbox           |
|  \\    /   O peration     | Version:  v2006                                 |
|   \\  /    A nd           | Website:  www.openfoam.com                      |
|    \\/     M anipulation  |                                                 |
\*---------------------------------------------------------------------------*/
FoamFile
{
    version     2.0;
    format      ascii;
    class       volScalarField;
    location    "0.57";
    object      p;
}
// * * * * * * * * * * * * * * * * * * * * * * * * * * * * * * * * * * * * * //

dimensions      [0 2 -2 0 0 0 0];


internalField   nonuniform List<scalar> 
374400
(
0.137107
0.0651517
-0.0190092
-0.0510982
-0.0532656
-0.0509292
-0.0531939
-0.0609893
-0.0727886
-0.0870143
-0.102522
-0.118555
-0.134672
-0.150816
-0.166563
-0.181835
-0.196215
-0.209916
-0.222597
-0.233715
-0.242499
-0.248943
-0.253795
-0.257154
-0.259785
-0.261711
-0.262975
-0.264853
-0.267299
-0.270242
-0.274118
-0.277723
-0.280164
-0.282031
-0.283362
-0.28422
-0.285475
-0.287078
-0.288973
-0.2914
-0.293502
-0.294811
-0.295753
-0.296382
-0.296773
-0.297325
-0.297969
-0.298632
-0.299065
-0.299277
-0.299399
-0.299305
-0.299097
-0.298834
-0.298632
-0.298299
-0.297746
-0.296907
-0.295418
-0.293468
-0.291797
-0.290325
-0.289116
-0.288284
-0.286997
-0.285145
-0.282662
-0.278815
-0.274466
-0.271083
-0.268239
-0.265996
-0.264477
-0.262158
-0.258925
-0.254723
-0.248486
-0.238915
-0.224183
-0.203182
-0.176351
-0.145061
-0.109882
-0.0724701
-0.0369374
-0.00640773
0.0186546
0.0385712
0.0539776
0.0656099
0.0741427
0.0801239
0.083991
0.0861074
0.0867813
0.0862754
0.0848143
0.0825965
0.0797886
0.0765272
0.072922
0.0690585
0.0650037
0.0608102
0.0565195
0.0521619
0.0477588
0.0433232
0.0388634
0.0343806
0.0298767
0.0253505
0.0208069
0.0162359
0.0116514
0.00712747
0.000744854
0.1398
0.067872
-0.0162597
-0.0483249
-0.0504549
-0.0480735
-0.0502907
-0.0580472
-0.0698225
-0.0840452
-0.0995813
-0.115682
-0.131927
-0.148332
-0.164222
-0.179848
-0.194657
-0.208869
-0.222114
-0.233789
-0.24305
-0.249866
-0.255013
-0.258585
-0.261386
-0.263439
-0.264789
-0.266795
-0.269411
-0.272566
-0.276738
-0.280636
-0.283281
-0.285309
-0.286757
-0.287694
-0.289066
-0.29082
-0.292901
-0.295576
-0.297913
-0.29938
-0.300442
-0.301158
-0.301604
-0.302237
-0.302985
-0.30377
-0.304314
-0.304608
-0.304825
-0.304815
-0.304666
-0.304442
-0.304262
-0.303961
-0.303447
-0.302648
-0.3012
-0.299267
-0.297593
-0.29611
-0.294888
-0.294043
-0.292735
-0.290852
-0.288322
-0.284396
-0.279952
-0.276487
-0.273569
-0.271266
-0.269704
-0.267319
-0.263996
-0.259676
-0.253264
-0.243426
-0.228291
-0.206727
-0.179204
-0.14714
-0.111138
-0.072912
-0.036668
-0.00558329
0.0198751
0.0400373
0.0555618
0.0672154
0.0756994
0.0815846
0.0853272
0.0873065
0.0878393
0.0871945
0.0856013
0.0832615
0.0803446
0.0769863
0.0732952
0.0693576
0.0652405
0.060996
0.0566642
0.0522743
0.0478459
0.0433913
0.038917
0.0344242
0.0299119
0.0253785
0.0208303
0.0162551
0.0116641
0.00713504
0.000745004
0.145227
0.0733158
-0.0107784
-0.0427751
-0.0448177
-0.0423373
-0.0444519
-0.0521149
-0.0638204
-0.0780121
-0.0935805
-0.109794
-0.126229
-0.142851
-0.159355
-0.175698
-0.191362
-0.20661
-0.221016
-0.233842
-0.244096
-0.251687
-0.257448
-0.261463
-0.264621
-0.266943
-0.268473
-0.270748
-0.273722
-0.27732
-0.282113
-0.286622
-0.289691
-0.292052
-0.293747
-0.294845
-0.296458
-0.298528
-0.300992
-0.304181
-0.306995
-0.308779
-0.310085
-0.310975
-0.311535
-0.312335
-0.313291
-0.31432
-0.315083
-0.315536
-0.315936
-0.316081
-0.316043
-0.315892
-0.315759
-0.315523
-0.31508
-0.314353
-0.312963
-0.311026
-0.309322
-0.307802
-0.306545
-0.305676
-0.304327
-0.302372
-0.299736
-0.295626
-0.290947
-0.287294
-0.284222
-0.281798
-0.280156
-0.277649
-0.274148
-0.269596
-0.262833
-0.252452
-0.236478
-0.213734
-0.184744
-0.151053
-0.113351
-0.0734839
-0.0358502
-0.00371342
0.0224771
0.0430888
0.0588296
0.0705154
0.0788995
0.084592
0.0880884
0.0897928
0.0900397
0.0891133
0.0872461
0.0846514
0.0815029
0.0779407
0.0740731
0.0699825
0.0657346
0.0613832
0.056967
0.0525107
0.0480295
0.0435359
0.0390328
0.0345187
0.0299905
0.0254441
0.020883
0.016296
0.0116957
0.00715726
0.000751513
0.153352
0.0814709
-0.00254855
-0.0344198
-0.0363057
-0.033641
-0.0355575
-0.0430306
-0.0545744
-0.0686598
-0.084211
-0.100532
-0.117224
-0.13436
-0.151731
-0.168902
-0.185806
-0.202649
-0.218878
-0.233545
-0.24541
-0.254263
-0.261029
-0.265772
-0.269515
-0.272278
-0.2741
-0.276815
-0.280374
-0.284707
-0.290537
-0.296062
-0.299839
-0.302756
-0.304861
-0.306229
-0.308243
-0.310841
-0.313948
-0.318002
-0.321625
-0.323951
-0.325668
-0.326852
-0.3276
-0.328677
-0.329987
-0.331433
-0.332571
-0.333298
-0.334011
-0.334434
-0.33459
-0.334563
-0.334504
-0.334369
-0.334048
-0.333447
-0.332172
-0.330274
-0.328543
-0.32697
-0.325652
-0.324733
-0.323299
-0.32122
-0.318405
-0.314
-0.30897
-0.305021
-0.301678
-0.299034
-0.297236
-0.294486
-0.290656
-0.285674
-0.278278
-0.26694
-0.249529
-0.224808
-0.193397
-0.157044
-0.116592
-0.0741092
-0.0343051
-0.000567068
0.0266997
0.0479351
0.0639322
0.0756029
0.0837677
0.0891201
0.0922035
0.0934577
0.09325
0.0918764
0.0896041
0.0866376
0.0831524
0.0792913
0.0751644
0.0708527
0.0664204
0.0619189
0.0573823
0.052832
0.0482799
0.0437345
0.0391934
0.0346509
0.0301004
0.0255358
0.0209597
0.016359
0.011742
0.00718567
0.000761025
0.16415
0.0923243
0.00842777
-0.023243
-0.0248693
-0.0218925
-0.0234629
-0.0305864
-0.0418066
-0.0556275
-0.0710217
-0.0873546
-0.104241
-0.12189
-0.140105
-0.15851
-0.177124
-0.196179
-0.214996
-0.232326
-0.24655
-0.257265
-0.265525
-0.271352
-0.275968
-0.279391
-0.281653
-0.285028
-0.289465
-0.294903
-0.302287
-0.309322
-0.314152
-0.317899
-0.320616
-0.322388
-0.325002
-0.328383
-0.332443
-0.337774
-0.342572
-0.345675
-0.347984
-0.349593
-0.350618
-0.352097
-0.35391
-0.355939
-0.357588
-0.358688
-0.359828
-0.360605
-0.361008
-0.361141
-0.361183
-0.361192
-0.36102
-0.360552
-0.359349
-0.357368
-0.355511
-0.353817
-0.35239
-0.351398
-0.349847
-0.347561
-0.344445
-0.339523
-0.333846
-0.329394
-0.325649
-0.322695
-0.320695
-0.317638
-0.313359
-0.307789
-0.299514
-0.286818
-0.267319
-0.239685
-0.2047
-0.16445
-0.12004
-0.0738938
-0.0311607
0.00464836
0.0332399
0.0551834
0.0714009
0.0829348
0.0907218
0.0955459
0.0980162
0.0986251
0.0977691
0.095769
0.0929039
0.0893956
0.0854258
0.0811389
0.0766447
0.0720221
0.0673322
0.0626214
0.0579189
0.0532423
0.0485999
0.0439868
0.0393969
0.034819
0.0302433
0.0256579
0.0210612
0.0164398
0.0118023
0.00722541
0.00077409
0.177562
0.105823
0.0221155
-0.00924962
-0.0104722
-0.00699837
-0.0080006
-0.0145262
-0.0251583
-0.0384383
-0.0533849
-0.0693274
-0.0863425
-0.10439
-0.123449
-0.143247
-0.163968
-0.185881
-0.208185
-0.22922
-0.246802
-0.260211
-0.270651
-0.278064
-0.28396
-0.28835
-0.291257
-0.2956
-0.301349
-0.308443
-0.318129
-0.327429
-0.333842
-0.338831
-0.342465
-0.344839
-0.348348
-0.352904
-0.358396
-0.365646
-0.372229
-0.376521
-0.379731
-0.381981
-0.383418
-0.385495
-0.388072
-0.390996
-0.393447
-0.395124
-0.396919
-0.398267
-0.399064
-0.399445
-0.399632
-0.399837
-0.399893
-0.399644
-0.398623
-0.396666
-0.394704
-0.392846
-0.391249
-0.390121
-0.388341
-0.385738
-0.382177
-0.376548
-0.370063
-0.364926
-0.360549
-0.357076
-0.354706
-0.351075
-0.346027
-0.339461
-0.329725
-0.314839
-0.292118
-0.260116
-0.219871
-0.173949
-0.123878
-0.0726304
-0.0259778
0.0124557
0.042588
0.0652231
0.0814964
0.0926421
0.0997642
0.103756
0.105327
0.105025
0.103285
0.100466
0.0968491
0.0926605
0.0880884
0.083279
0.0783403
0.0733449
0.0683488
0.0633941
0.0585021
0.0536836
0.0489385
0.0442568
0.0396222
0.0350136
0.0304149
0.0258088
0.0211898
0.0165442
0.0118813
0.007275
0.000792778
0.193469
0.121857
0.0384293
0.00751121
0.00688854
0.0111121
0.0109866
0.00542061
-0.00421429
-0.0165083
-0.0305496
-0.0458122
-0.0623656
-0.0803803
-0.100088
-0.121269
-0.14427
-0.169656
-0.196486
-0.222541
-0.244816
-0.262057
-0.275615
-0.285308
-0.29305
-0.298836
-0.302682
-0.308451
-0.316129
-0.325625
-0.338643
-0.351217
-0.359915
-0.366701
-0.371658
-0.374904
-0.379708
-0.38595
-0.393486
-0.40346
-0.412497
-0.418405
-0.422837
-0.425953
-0.427949
-0.430841
-0.434423
-0.438499
-0.441936
-0.44432
-0.446903
-0.448875
-0.450094
-0.450734
-0.451084
-0.451509
-0.451747
-0.451611
-0.450498
-0.448104
-0.445701
-0.443465
-0.441555
-0.440225
-0.43813
-0.434988
-0.430666
-0.423771
-0.415739
-0.409443
-0.40417
-0.400026
-0.397227
-0.392953
-0.386949
-0.379138
-0.367549
-0.349817
-0.322719
-0.284646
-0.237044
-0.183302
-0.125676
-0.0679588
-0.0166479
0.0246452
0.0562383
0.0792928
0.0952564
0.105601
0.111645
0.114427
0.114753
0.113227
0.110324
0.106413
0.101794
0.0967086
0.0913499
0.0858648
0.0803531
0.0748842
0.0695046
0.0642442
0.0591189
0.0541325
0.0492788
0.0445299
0.0398551
0.0352236
0.0306076
0.025983
0.0213417
0.0166678
0.0119742
0.00733209
0.000816507
0.211664
0.140235
0.0571975
0.0269023
0.0271297
0.0324408
0.0336129
0.0295025
0.0214404
0.0107914
-0.00160294
-0.0153452
-0.0306348
-0.047789
-0.0673251
-0.089461
-0.114635
-0.144058
-0.176584
-0.209391
-0.238278
-0.261049
-0.279174
-0.292222
-0.302703
-0.310601
-0.315869
-0.323783
-0.334325
-0.347403
-0.365427
-0.382944
-0.395079
-0.404554
-0.411485
-0.416028
-0.422757
-0.431513
-0.442092
-0.456103
-0.468939
-0.47731
-0.483596
-0.48803
-0.49087
-0.494984
-0.500113
-0.50599
-0.511027
-0.514553
-0.518415
-0.521476
-0.523413
-0.524472
-0.525047
-0.525753
-0.526305
-0.526427
-0.525436
-0.522883
-0.520122
-0.517419
-0.515059
-0.513371
-0.510691
-0.506784
-0.501429
-0.492976
-0.483273
-0.475547
-0.468913
-0.463634
-0.460012
-0.454451
-0.446771
-0.43679
-0.422039
-0.399594
-0.365636
-0.318321
-0.259663
-0.194262
-0.125792
-0.059332
-0.00219108
0.0422352
0.0750295
0.0979776
0.112998
0.121937
0.12631
0.127354
0.125997
0.122858
0.11846
0.113174
0.107325
0.10116
0.0948712
0.0886031
0.082441
0.0764397
0.0706319
0.0650342
0.0596685
0.0545226
0.0495768
0.0447838
0.0400919
0.0354561
0.0308364
0.0261998
0.0215364
0.0168286
0.0120969
0.00740198
0.000854695
0.231827
0.160646
0.0781345
0.0486785
0.0500633
0.056868
0.0598622
0.0578604
0.052156
0.0440821
0.0344235
0.0234631
0.0108592
-0.00418685
-0.022091
-0.0438819
-0.0706538
-0.10389
-0.143047
-0.184824
-0.223016
-0.253819
-0.278707
-0.296839
-0.311513
-0.322615
-0.330043
-0.341206
-0.356107
-0.374631
-0.400284
-0.425305
-0.44262
-0.456117
-0.465973
-0.472429
-0.481985
-0.4944
-0.509372
-0.529149
-0.547107
-0.558752
-0.567469
-0.573603
-0.577532
-0.58322
-0.590289
-0.598365
-0.60521
-0.609959
-0.615104
-0.619019
-0.621428
-0.622697
-0.623392
-0.62423
-0.624702
-0.624471
-0.622423
-0.618056
-0.613778
-0.609872
-0.606585
-0.604319
-0.600761
-0.595405
-0.588084
-0.576501
-0.56315
-0.552858
-0.544369
-0.537759
-0.533333
-0.526598
-0.517084
-0.504725
-0.486411
-0.458417
-0.415713
-0.355994
-0.282107
-0.200844
-0.118402
-0.0416365
0.0215853
0.0686139
0.101676
0.123436
0.13641
0.142956
0.144743
0.143389
0.139734
0.134514
0.128177
0.121154
0.113754
0.106247
0.0988251
0.0916027
0.0846549
0.0780132
0.0716998
0.0657232
0.0600832
0.0547774
0.0497624
0.04496
0.0402904
0.0356828
0.0310807
0.0264438
0.0217634
0.0170205
0.012244
0.00747412
0.000904833
0.252719
0.181842
0.0999765
0.0715605
0.0743884
0.0830939
0.0884502
0.0892426
0.0867678
0.0823666
0.0768096
0.0703011
0.0623366
0.0519418
0.0379983
0.019118
-0.00682317
-0.042606
-0.0889477
-0.141687
-0.192648
-0.235206
-0.270408
-0.296374
-0.317469
-0.333477
-0.344173
-0.360278
-0.381842
-0.408721
-0.445943
-0.48204
-0.506827
-0.526093
-0.54008
-0.549281
-0.562926
-0.580531
-0.601657
-0.629493
-0.654779
-0.671356
-0.683876
-0.692763
-0.698489
-0.706801
-0.717143
-0.729005
-0.739152
-0.746205
-0.753821
-0.759615
-0.763107
-0.764876
-0.765753
-0.766704
-0.767168
-0.766585
-0.763506
-0.757659
-0.75197
-0.746619
-0.742104
-0.7389
-0.733858
-0.726759
-0.717301
-0.702914
-0.687077
-0.674577
-0.663732
-0.655029
-0.648987
-0.639679
-0.626938
-0.61032
-0.585655
-0.547945
-0.490682
-0.410552
-0.31142
-0.204809
-0.102022
-0.0123085
0.0567371
0.104794
0.136321
0.155075
0.164718
0.167749
0.166356
0.161925
0.155444
0.147617
0.138924
0.129794
0.120553
0.111473
0.102756
0.094493
0.0866961
0.079364
0.0725071
0.0661333
0.0602526
0.0548419
0.0498206
0.0450777
0.0404931
0.0359565
0.0313969
0.0267704
0.0220732
0.0172816
0.0124448
0.00756452
0.000992365
0.272793
0.202254
0.121103
0.0938428
0.0983016
0.109172
0.117258
0.12136
0.122814
0.123043
0.122883
0.122547
0.121471
0.1185
0.112211
0.100359
0.0796406
0.0452781
-0.00610769
-0.070815
-0.1384
-0.197627
-0.248137
-0.286105
-0.317275
-0.341101
-0.357099
-0.381234
-0.413531
-0.45378
-0.509521
-0.563224
-0.599405
-0.627008
-0.646818
-0.659625
-0.67842
-0.702681
-0.731608
-0.769202
-0.802985
-0.824897
-0.841425
-0.85318
-0.860755
-0.871737
-0.885325
-0.900819
-0.913587
-0.922225
-0.93123
-0.937043
-0.940058
-0.941133
-0.94162
-0.941937
-0.940611
-0.937096
-0.928555
-0.915515
-0.904543
-0.895317
-0.888023
-0.883173
-0.875722
-0.864777
-0.850401
-0.828764
-0.805357
-0.788446
-0.775136
-0.765033
-0.758451
-0.748595
-0.734294
-0.715586
-0.687334
-0.642768
-0.571739
-0.467969
-0.33653
-0.198026
-0.0715137
0.0317918
0.105584
0.15262
0.180063
0.193415
0.197841
0.195922
0.190076
0.181809
0.171942
0.161155
0.149896
0.138491
0.127248
0.116475
0.106385
0.097032
0.0883795
0.0803618
0.0729346
0.0661497
0.0600426
0.0545806
0.0496406
0.0450505
0.0406291
0.0362222
0.0317446
0.0271467
0.0224346
0.0175878
0.0126842
0.0076667
0.00110204
0.29139
0.221205
0.140786
0.114742
0.120923
0.134093
0.145127
0.15286
0.158736
0.16433
0.170645
0.178035
0.18611
0.193772
0.199386
0.20021
0.191519
0.165865
0.115094
0.0396289
-0.0495479
-0.133823
-0.208871
-0.266126
-0.312995
-0.348555
-0.372072
-0.407462
-0.455416
-0.514625
-0.595292
-0.669827
-0.718059
-0.754308
-0.780346
-0.797396
-0.822403
-0.85368
-0.890545
-0.937852
-0.980808
-1.01092
-1.03498
-1.0528
-1.06454
-1.0819
-1.10423
-1.13058
-1.15349
-1.16875
-1.18426
-1.19447
-1.19868
-1.199
-1.19808
-1.19544
-1.18996
-1.18013
-1.16102
-1.13743
-1.11978
-1.10531
-1.09424
-1.08665
-1.07515
-1.06066
-1.04346
-1.02099
-1.0004
-0.985387
-0.97206
-0.960929
-0.952758
-0.939827
-0.922087
-0.898256
-0.861235
-0.802067
-0.706221
-0.559121
-0.367714
-0.176242
-0.0174641
0.0982747
0.170898
0.210892
0.22971
0.23589
0.233706
0.226407
0.21594
0.203591
0.190047
0.175907
0.161691
0.147664
0.13409
0.121383
0.109802
0.0993101
0.0897587
0.0810349
0.07303
0.0658235
0.0595206
0.05409
0.0493424
0.0450107
0.0408326
0.0366056
0.0322303
0.0276595
0.0229207
0.0179983
0.0130094
0.00782173
0.00124911
0.308039
0.238198
0.158488
0.133664
0.141561
0.15703
0.17104
0.182478
0.192989
0.204314
0.21775
0.233955
0.252965
0.274053
0.295986
0.316083
0.328664
0.323222
0.284205
0.204002
0.0915565
-0.0223187
-0.126698
-0.207733
-0.27563
-0.328885
-0.36493
-0.421102
-0.501144
-0.605663
-0.751287
-0.880214
-0.959564
-1.01518
-1.05096
-1.07304
-1.10347
-1.1374
-1.17193
-1.20826
-1.2356
-1.25461
-1.27143
-1.28577
-1.29598
-1.31187
-1.3334
-1.36064
-1.38397
-1.39753
-1.41012
-1.41441
-1.41261
-1.4079
-1.4042
-1.39816
-1.38786
-1.37165
-1.34173
-1.30562
-1.28028
-1.26051
-1.24627
-1.23726
-1.22363
-1.20558
-1.18176
-1.14513
-1.10578
-1.07973
-1.06208
-1.0513
-1.04462
-1.0357
-1.02277
-1.00421
-0.973081
-0.919638
-0.826254
-0.653253
-0.40308
-0.149349
0.0511146
0.182872
0.252999
0.282556
0.289392
0.28395
0.272122
0.257348
0.241277
0.224331
0.207004
0.189744
0.172811
0.156236
0.140323
0.125656
0.112637
0.101132
0.0907879
0.0813737
0.0727735
0.0651077
0.0586087
0.0532786
0.0488387
0.044885
0.0410479
0.037061
0.0328121
0.0282707
0.0234967
0.0184833
0.0133994
0.00802227
0.00143236
0.321729
0.252145
0.173051
0.149343
0.158789
0.176307
0.192961
0.207775
0.222561
0.239243
0.259501
0.284364
0.314442
0.349844
0.390279
0.43413
0.476315
0.504294
0.492701
0.416742
0.27881
0.123001
-0.039448
-0.190752
-0.33366
-0.454862
-0.539447
-0.668103
-0.831876
-1.01298
-1.19496
-1.29878
-1.34071
-1.3642
-1.37707
-1.3828
-1.3885
-1.39399
-1.39789
-1.40294
-1.4201
-1.45625
-1.50306
-1.55187
-1.58694
-1.63995
-1.71197
-1.79929
-1.86148
-1.89516
-1.9194
-1.91299
-1.89031
-1.86342
-1.84322
-1.80948
-1.75481
-1.67894
-1.56938
-1.47921
-1.44927
-1.43424
-1.41477
-1.39884
-1.37913
-1.36521
-1.36218
-1.36221
-1.35633
-1.35197
-1.34583
-1.33869
-1.33325
-1.32548
-1.31487
-1.29749
-1.25819
-1.17335
-1.00517
-0.721072
-0.37957
-0.0792297
0.142652
0.280088
0.341877
0.35563
0.346132
0.328061
0.3071
0.285783
0.264753
0.244018
0.223624
0.203725
0.184238
0.165024
0.146539
0.129689
0.115151
0.102713
0.0916486
0.0816092
0.0723572
0.0641917
0.0575136
0.0523459
0.0482897
0.0447838
0.0413281
0.0375932
0.0334668
0.0289405
0.0241156
0.0189946
0.0138112
0.00823329
0.00164452
0.331859
0.262384
0.18375
0.160979
0.17166
0.190746
0.209434
0.226911
0.24509
0.266071
0.291805
0.323792
0.363074
0.410696
0.467608
0.533801
0.606497
0.673654
0.702944
0.6469
0.477139
0.226131
-0.0957304
-0.40144
-0.646431
-0.811677
-0.914568
-1.04745
-1.1633
-1.25873
-1.37497
-1.45955
-1.487
-1.51155
-1.53692
-1.55556
-1.5811
-1.59012
-1.5722
-1.49696
-1.40869
-1.40786
-1.44529
-1.50545
-1.5622
-1.66901
-1.8557
-2.122
-2.32909
-2.43017
-2.50662
-2.51374
-2.47658
-2.42425
-2.38232
-2.30678
-2.17712
-1.98671
-1.70147
-1.45949
-1.30401
-1.19253
-1.128
-1.09504
-1.06288
-1.06453
-1.1065
-1.20337
-1.32696
-1.41731
-1.48018
-1.51613
-1.53719
-1.56365
-1.58557
-1.60041
-1.6014
-1.561
-1.36821
-0.929205
-0.419294
-0.0160419
0.249062
0.390899
0.434125
0.424805
0.39555
0.363192
0.332718
0.305237
0.280305
0.257507
0.236055
0.214948
0.193614
0.172129
0.151354
0.132625
0.116935
0.103952
0.0926121
0.0821579
0.0722604
0.063474
0.0564879
0.0513882
0.0476689
0.0445884
0.0415028
0.0380134
0.0340056
0.0294941
0.0246248
0.0194052
0.0141438
0.00838332
0.00184643
0.338756
0.269285
0.190938
0.168908
0.180479
0.200622
0.22073
0.24009
0.260659
0.284718
0.314351
0.351425
0.397389
0.453846
0.522927
0.606062
0.703034
0.80402
0.87567
0.847344
0.643098
0.280815
-0.139638
-0.460197
-0.684202
-0.83495
-0.93069
-1.04015
-1.12656
-1.28019
-1.5894
-1.81201
-1.90252
-1.94699
-1.96522
-1.968
-1.95704
-1.90751
-1.79633
-1.53932
-1.2951
-1.28925
-1.43508
-1.6788
-1.87458
-2.17938
-2.53126
-2.8702
-3.04576
-3.0824
-3.06183
-2.97877
-2.88404
-2.79566
-2.72796
-2.60902
-2.40894
-2.12127
-1.64085
-1.20764
-1.19222
-1.34348
-1.45297
-1.51913
-1.59738
-1.64924
-1.66813
-1.65569
-1.64921
-1.64978
-1.65091
-1.65081
-1.65
-1.64969
-1.64808
-1.64382
-1.63885
-1.60347
-1.40055
-0.926492
-0.364317
0.0816318
0.361823
0.491627
0.510909
0.478843
0.431914
0.387654
0.349192
0.316917
0.290042
0.267134
0.245936
0.224352
0.201667
0.1783
0.155767
0.13581
0.119496
0.106168
0.0945497
0.0835208
0.0728222
0.0632907
0.055845
0.0506309
0.0470942
0.0443221
0.0415335
0.0382557
0.0343601
0.029873
0.0249774
0.0196805
0.0143694
0.00845049
0.00202197
0.343405
0.273894
0.195728
0.174259
0.186441
0.207285
0.228362
0.249027
0.271233
0.297413
0.329748
0.370315
0.420901
0.483472
0.56094
0.655858
0.770015
0.895901
1.00191
0.993583
0.773035
0.38738
0.0568521
-0.198452
-0.388367
-0.543857
-0.707982
-0.966709
-1.3256
-1.75119
-2.13323
-2.18811
-2.17888
-2.19053
-2.21303
-2.22278
-2.22216
-2.17697
-2.0627
-1.73082
-1.33383
-1.41086
-1.60354
-1.89607
-2.14582
-2.54332
-2.96319
-3.33591
-3.44619
-3.41886
-3.31444
-3.16253
-3.03552
-2.94026
-2.87463
-2.7639
-2.56499
-2.25328
-1.8443
-1.77646
-1.90572
-1.96143
-1.9452
-1.92135
-1.85324
-1.75784
-1.65733
-1.56932
-1.55397
-1.57202
-1.59762
-1.61969
-1.63281
-1.65045
-1.66565
-1.6708
-1.65743
-1.5906
-1.36923
-0.875383
-0.291931
0.172958
0.455112
0.569718
0.568281
0.51718
0.456589
0.40358
0.359875
0.325355
0.297906
0.275061
0.253687
0.231292
0.207493
0.183125
0.159991
0.139759
0.123313
0.109663
0.0973874
0.0852845
0.0735029
0.0631061
0.0551588
0.0498312
0.0464602
0.0439666
0.0414449
0.0383581
0.0345669
0.0301091
0.0252006
0.0198471
0.0145081
0.00845708
0.00216323
0.346621
0.27706
0.199016
0.177965
0.190563
0.211894
0.233649
0.255232
0.278584
0.306247
0.340485
0.383497
0.437312
0.504155
0.587445
0.690522
0.816591
0.960191
1.09114
1.09857
0.875709
0.555259
0.355702
0.131064
-0.0840552
-0.327608
-0.71131
-1.39685
-2.07188
-2.37764
-2.49664
-2.33996
-2.25302
-2.21675
-2.20925
-2.20759
-2.20713
-2.18006
-2.10979
-1.76596
-1.406
-1.45849
-1.6951
-2.13004
-2.50882
-3.0074
-3.45475
-3.74731
-3.72404
-3.5838
-3.38324
-3.21698
-3.06764
-2.92634
-2.83318
-2.73334
-2.58474
-2.37948
-2.22822
-2.26206
-2.12527
-1.91947
-1.72091
-1.61891
-1.50867
-1.41888
-1.338
-1.30659
-1.34858
-1.41246
-1.47729
-1.52951
-1.56363
-1.5985
-1.6047
-1.6346
-1.66278
-1.6274
-1.37163
-0.839567
-0.235945
0.242514
0.524745
0.62703
0.608994
0.54358
0.473546
0.415096
0.368755
0.333501
0.305828
0.282625
0.260425
0.236766
0.211812
0.186762
0.163522
0.143463
0.127064
0.113099
0.0999762
0.0867172
0.0738648
0.0627112
0.0543941
0.0490359
0.0458451
0.0436045
0.0413128
0.0383869
0.0346842
0.0302538
0.0253397
0.0199449
0.0145906
0.0084325
0.0022736
0.349125
0.279527
0.201584
0.18086
0.193777
0.215495
0.237784
0.26009
0.284348
0.313174
0.348914
0.39385
0.450197
0.520387
0.608208
0.717601
0.852843
1.01025
1.16032
1.18199
0.970565
0.753409
0.724381
0.525762
0.244008
-0.665072
-1.55321
-2.21175
-2.7482
-2.61858
-2.48567
-2.33988
-2.27255
-2.236
-2.23069
-2.2326
-2.23826
-2.21772
-2.15255
-1.84277
-1.50042
-1.54054
-1.84161
-2.50993
-3.00034
-3.33154
-3.67482
-3.62109
-3.54559
-3.49061
-3.35018
-3.1706
-3.01973
-2.86956
-2.73748
-2.64377
-2.56873
-2.5383
-2.64106
-2.43247
-1.99808
-1.55847
-1.34462
-1.2799
-1.29681
-1.38554
-1.37896
-1.39662
-1.48167
-1.57715
-1.68375
-1.7938
-1.87416
-1.91615
-1.89561
-1.90974
-1.90213
-1.77131
-1.40549
-0.817868
-0.193137
0.296808
0.579624
0.672196
0.640645
0.56418
0.487492
0.425388
0.377554
0.341947
0.313872
0.289877
0.266478
0.241474
0.215484
0.189885
0.166539
0.146765
0.130337
0.116011
0.10206
0.0877348
0.0739295
0.0621626
0.0535909
0.0482604
0.0452599
0.043255
0.0411683
0.038383
0.0347572
0.030352
0.0254353
0.020008
0.0146438
0.00839527
0.00236393
0.350948
0.281338
0.203457
0.182961
0.196117
0.218132
0.240815
0.263648
0.288573
0.318256
0.3551
0.401453
0.459655
0.532284
0.623383
0.737289
0.879
1.0461
1.20941
1.24217
1.05015
0.9329
1.07488
1.05757
0.967448
-1.0627
-3.87137
-2.43244
-2.83822
-2.4991
-2.47739
-2.33195
-2.26402
-2.23474
-2.22771
-2.22508
-2.24057
-2.22924
-2.20481
-1.93139
-1.65175
-1.7141
-1.99169
-2.93676
-3.96252
-3.38025
-3.71723
-3.59734
-3.56322
-3.4882
-3.34049
-3.14426
-3.11871
-3.31767
-2.78158
-2.53914
-2.55443
-2.70354
-2.85359
-2.36642
-1.65601
-1.17653
-1.29417
-1.72487
-1.49165
-1.54571
-1.47916
-1.44343
-1.50531
-1.60447
-1.74238
-1.99365
-2.25581
-2.16198
-2.17276
-2.27006
-2.28094
-2.0421
-1.50296
-0.826371
-0.171063
0.332238
0.61819
0.704548
0.663492
0.579737
0.498894
0.43457
0.385906
0.34991
0.32121
0.296197
0.271488
0.245269
0.21845
0.192371
0.169243
0.149312
0.132791
0.118069
0.103446
0.0882536
0.0737265
0.0615325
0.0528215
0.0475617
0.0447455
0.042946
0.0410289
0.0383571
0.0347931
0.0304089
0.025492
0.020041
0.0146716
0.00835288
0.00242934
0.352128
0.28254
0.204717
0.184331
0.197646
0.219866
0.242811
0.265991
0.291356
0.321603
0.359176
0.406462
0.465884
0.540113
0.633351
0.750184
0.89605
1.06933
1.24107
1.28021
1.10235
1.05716
1.31239
1.4829
1.60176
0.410641
-2.21595
-2.24621
-2.2331
-2.24775
-2.00659
-1.80964
-1.86687
-2.03204
-2.60745
-2.55298
-2.45187
-2.54499
-2.80978
-2.9408
-2.25611
-1.3941
-0.907676
-1.04332
-2.56816
-2.21764
-2.2908
-2.46445
-2.53523
-2.26598
-1.6005
-0.84698
-0.162926
0.352738
0.642265
0.725384
0.678401
0.590245
0.506924
0.441248
0.392041
0.355693
0.326486
0.300656
0.274959
0.247874
0.220484
0.194262
0.171039
0.150984
0.13434
0.119315
0.104215
0.0884842
0.0735001
0.0610452
0.0522612
0.0470635
0.0443814
0.0427261
0.0409257
0.0383313
0.0348095
0.0304402
0.0255236
0.0200581
0.0146845
0.00832071
0.0024712
0.353845
0.284335
0.206623
0.18634
0.199892
0.222427
0.245769
0.269461
0.295481
0.326563
0.365215
0.413885
0.475112
0.551704
0.648083
0.769197
0.921081
1.10335
1.28742
1.33502
1.18687
1.25427
1.67261
2.09116
2.38433
2.07417
-2.21145
-2.25721
-2.25553
-2.34093
-2.15863
-2.05498
-2.05394
-2.05684
-2.23108
-2.42727
-2.39585
-2.54268
-2.93505
-2.95881
-2.0089
-0.994603
-0.564597
-0.710861
-2.22902
-2.25147
-2.41488
-2.67134
-2.86792
-2.61679
-1.78519
-0.8998
-0.16088
0.378519
0.675978
0.75555
0.700437
0.606446
0.519895
0.452393
0.402335
0.36529
0.335081
0.307817
0.280473
0.25205
0.223787
0.197344
0.173896
0.153546
0.136559
0.120988
0.105158
0.0886508
0.0730268
0.0602193
0.0513548
0.0462713
0.0438059
0.0423763
0.0407556
0.0382796
0.0348222
0.0304766
0.0255612
0.0200759
0.0146951
0.00826651
0.00253123
0.356056
0.28667
0.209092
0.188921
0.202785
0.225744
0.249606
0.273962
0.300832
0.333003
0.373058
0.423525
0.487087
0.566709
0.667071
0.79351
0.952691
1.14564
1.34477
1.40485
1.3068
1.50517
2.09761
2.71439
3.15237
3.08058
-2.23598
-2.2999
-2.34328
-2.46656
-2.35436
-2.26911
-2.21141
-2.01825
-2.01755
-2.31446
-2.31734
-2.56106
-3.02876
-2.82728
-1.59265
-0.509476
-0.246485
-0.442368
-2.40781
-2.41917
-2.57278
-2.8342
-3.11981
-2.9638
-2.04165
-1.02171
-0.192946
0.394544
0.712055
0.792287
0.729935
0.630017
0.540191
0.470548
0.419017
0.380249
0.348003
0.318267
0.288456
0.2583
0.22907
0.202168
0.178231
0.157166
0.139248
0.122615
0.105742
0.0882928
0.0719886
0.0588566
0.0499795
0.0451088
0.0429711
0.0418609
0.0404864
0.0381707
0.0348012
0.0304899
0.0255803
0.0200721
0.0146869
0.00816858
0.00260709
0.358726
0.289489
0.212083
0.192049
0.206281
0.229757
0.254256
0.27942
0.307327
0.340823
0.38258
0.435228
0.501607
0.584857
0.689913
0.822478
0.989771
1.19407
1.40934
1.4873
1.44604
1.76635
2.49945
3.2419
3.75776
3.77901
-2.30071
-2.35245
-2.42486
-2.5021
-2.4439
-2.39182
-2.28055
-1.91734
-1.80311
-2.14787
-2.18891
-2.5652
-3.03879
-2.53145
-1.05681
-0.0236803
-0.0404177
-0.326795
-2.45319
-2.53874
-2.71657
-2.95885
-3.27434
-3.1803
-2.29084
-1.20204
-0.276126
0.388349
0.74488
0.833513
0.766684
0.66222
0.569742
0.497477
0.443185
0.401171
0.365503
0.332187
0.299153
0.266739
0.236416
0.20896
0.184054
0.16174
0.142237
0.124038
0.105833
0.0873444
0.0703963
0.0569892
0.0481652
0.0435999
0.0418839
0.0411703
0.0400982
0.0379789
0.0347189
0.030455
0.0255597
0.0200292
0.0146465
0.0080087
0.00270355
0.36229
0.293199
0.216011
0.196227
0.210937
0.235085
0.260443
0.286691
0.315988
0.351259
0.395287
0.450854
0.52094
0.60891
0.71992
0.859862
1.03616
1.25164
1.48356
1.59078
1.59346
1.97745
2.77824
3.57808
4.13226
4.17248
-2.34682
-2.34214
-2.35001
-2.36924
-2.36195
-2.28516
-2.11631
-1.6406
-1.40099
-1.7716
-1.8588
-2.28593
-2.73962
-2.15078
-0.728248
0.133174
-0.178218
-0.442831
-2.44872
-2.55988
-2.6746
-2.86025
-3.20082
-3.16634
-2.41076
-1.40933
-0.434215
0.323921
0.74458
0.862505
0.805564
0.707594
0.616951
0.542141
0.482989
0.434866
0.393053
0.353726
0.315641
0.279952
0.247891
0.219147
0.192321
0.167804
0.145968
0.125409
0.105378
0.0855715
0.0679543
0.0543337
0.0456754
0.0415301
0.0403436
0.040131
0.03944
0.0375726
0.0344633
0.0302781
0.025424
0.0198788
0.0145252
0.00769051
0.00285785
0.365626
0.296566
0.219545
0.200119
0.215268
0.240005
0.266154
0.293419
0.324011
0.360935
0.407067
0.465317
0.538789
0.630974
0.747095
0.892839
1.07498
1.29532
1.53516
1.67397
1.66685
1.96441
2.69556
3.48061
4.06061
4.11348
-2.28878
-2.27683
-2.26468
-2.29562
-2.14864
-1.88139
-1.69746
-1.27625
-0.894346
-1.33374
-1.46693
-1.8306
-2.30234
-1.90157
-0.703295
-0.0749327
-0.638699
-0.836231
-2.53635
-2.59044
-2.60835
-2.69002
-2.85871
-2.79648
-2.25714
-1.4242
-0.517541
0.244003
0.696756
0.850389
0.829058
0.753355
0.668183
0.590525
0.525013
0.469822
0.420961
0.374862
0.331007
0.291315
0.25643
0.225181
0.196319
0.17051
0.147777
0.126154
0.105526
0.0847369
0.066525
0.0526196
0.0438723
0.0398632
0.0389626
0.0390642
0.0386265
0.0369458
0.0339755
0.02989
0.0251137
0.019581
0.0143014
0.0072182
0.00304067
0.367871
0.298784
0.221863
0.202734
0.218167
0.243284
0.269961
0.29791
0.32937
0.3674
0.414937
0.474977
0.550675
0.645606
0.764956
0.914135
1.09906
1.32008
1.55975
1.72384
1.70571
1.86231
2.42584
3.10167
3.66149
3.67474
-2.39008
-2.34612
-2.30474
-2.24225
-1.9209
-1.47743
-1.366
-1.13006
-0.702407
-1.15237
-1.31712
-1.62652
-2.07734
-1.80849
-0.835234
-0.482467
-1.15481
-1.30372
-2.6111
-2.64093
-2.63459
-2.66425
-2.71534
-2.60419
-2.08877
-1.36424
-0.537233
0.195585
0.658146
0.844547
0.852193
0.790916
0.707603
0.625843
0.554459
0.4935
0.439005
0.387612
0.339579
0.29699
0.259865
0.226943
0.197341
0.171407
0.148803
0.127357
0.106226
0.0850835
0.0663817
0.052018
0.0429992
0.0389202
0.0380867
0.0383124
0.0380029
0.0364294
0.0335506
0.0295397
0.0248281
0.0193118
0.0141014
0.00681749
0.00318713
0.369578
0.300463
0.223621
0.204729
0.220373
0.245776
0.272857
0.30133
0.333453
0.372325
0.420931
0.482326
0.55971
0.656702
0.778435
0.930058
1.11666
1.33721
1.57343
1.7534
1.74104
1.7593
2.10764
2.57931
3.01823
2.85117
-2.32511
-2.3129
-2.25458
-2.0899
-1.66964
-1.21257
-1.16752
-1.08494
-0.712182
-1.16434
-1.32286
-1.56936
-1.97976
-1.83018
-1.1315
-1.02002
-1.68101
-1.80199
-2.64102
-2.63993
-2.62438
-2.64671
-2.64441
-2.49109
-1.99983
-1.31666
-0.551038
0.156935
0.630646
0.845693
0.874901
0.822338
0.738091
0.651763
0.575329
0.509665
0.450755
0.395634
0.344992
0.300733
0.262373
0.228567
0.198552
0.172574
0.149977
0.128538
0.107081
0.0856626
0.0665301
0.0517621
0.0424675
0.0382784
0.0374513
0.0377353
0.0375006
0.0359969
0.0331832
0.0292297
0.0245713
0.0190717
0.0139205
0.00647452
0.0033012
0.370788
0.301663
0.224863
0.206134
0.221935
0.24755
0.274916
0.30376
0.336354
0.375826
0.425193
0.487547
0.566122
0.66456
0.787945
0.941208
1.12879
1.34851
1.58081
1.76627
1.77651
1.70311
1.83415
2.01837
2.29215
1.17398
-2.82681
-2.21384
-2.04449
-1.85027
-1.45107
-1.12915
-1.09307
-1.06153
-0.778801
-1.3328
-1.42161
-1.5997
-1.9637