/*--------------------------------*- C++ -*----------------------------------*\
| =========                 |                                                 |
| \\      /  F ield         | OpenFOAM: The Open Source CFD Toolbox           |
|  \\    /   O peration     | Version:  v2006                                 |
|   \\  /    A nd           | Website:  www.openfoam.com                      |
|    \\/     M anipulation  |                                                 |
\*---------------------------------------------------------------------------*/
FoamFile
{
    version     2.0;
    format      ascii;
    class       volScalarField;
    location    "0.5";
    object      k;
}
// * * * * * * * * * * * * * * * * * * * * * * * * * * * * * * * * * * * * * //

dimensions      [0 2 -2 0 0 0 0];


internalField   nonuniform List<scalar> 
374400
(
0.0963184
0.114566
0.105902
0.094679
0.0938255
0.0972265
0.105315
0.113529
0.120659
0.126773
0.132498
0.137926
0.143287
0.148615
0.153986
0.159301
0.16468
0.170118
0.175393
0.180228
0.184285
0.187442
0.189971
0.191814
0.193307
0.194448
0.1952
0.196351
0.197908
0.199872
0.202677
0.205523
0.207581
0.20923
0.210482
0.211304
0.212554
0.214233
0.216334
0.2193
0.222255
0.224364
0.226032
0.227288
0.228105
0.229345
0.230994
0.23304
0.235057
0.236656
0.238627
0.240581
0.242112
0.24326
0.244001
0.245125
0.246618
0.248454
0.250992
0.253458
0.2552
0.256559
0.257582
0.258239
0.259237
0.260564
0.262192
0.264443
0.266628
0.26817
0.269369
0.270272
0.270849
0.271727
0.272892
0.274328
0.2763
0.279046
0.282709
0.287009
0.291398
0.295471
0.299127
0.302292
0.304866
0.306908
0.308589
0.310011
0.31123
0.312282
0.313202
0.314011
0.314719
0.315332
0.315859
0.316307
0.316687
0.317007
0.317271
0.317485
0.317654
0.317784
0.317886
0.317964
0.318025
0.318073
0.318114
0.318148
0.318179
0.318208
0.318239
0.318265
0.318299
0.318331
0.318354
0.318547
0.318261
0.0963196
0.114564
0.105898
0.0946722
0.0938149
0.0972131
0.105297
0.113509
0.12064
0.126755
0.132487
0.137921
0.143293
0.148635
0.154024
0.159364
0.164769
0.170238
0.175546
0.180411
0.184492
0.187668
0.190208
0.192061
0.193561
0.194706
0.195463
0.196618
0.198183
0.200155
0.20297
0.205824
0.207887
0.209542
0.210798
0.211621
0.212873
0.214555
0.21666
0.21963
0.222588
0.224698
0.226366
0.227623
0.228439
0.229678
0.231326
0.233371
0.235386
0.236983
0.23895
0.2409
0.242428
0.243572
0.244312
0.245432
0.24692
0.24875
0.251278
0.253733
0.255467
0.256819
0.257836
0.258489
0.259481
0.260799
0.262419
0.264655
0.266827
0.268358
0.26955
0.270445
0.271017
0.271888
0.273045
0.274469
0.276427
0.279154
0.28279
0.287057
0.291413
0.295457
0.299088
0.302237
0.304807
0.306851
0.30854
0.309977
0.311211
0.31228
0.313217
0.314043
0.314765
0.315391
0.315928
0.316385
0.316772
0.317096
0.317363
0.317577
0.317746
0.317875
0.317974
0.318052
0.318112
0.31816
0.318199
0.318232
0.318266
0.318293
0.318324
0.318351
0.318385
0.318418
0.318443
0.318637
0.31835
0.0963214
0.114558
0.105887
0.0946529
0.0937885
0.0971833
0.10526
0.113468
0.120599
0.126721
0.132462
0.137912
0.143307
0.14868
0.154112
0.159502
0.164968
0.170506
0.175884
0.180816
0.184951
0.188165
0.190736
0.192608
0.194123
0.19528
0.196044
0.19721
0.198789
0.200778
0.203613
0.206488
0.208564
0.210227
0.211489
0.212316
0.213574
0.215263
0.217376
0.220355
0.223316
0.225428
0.227096
0.228352
0.229167
0.230405
0.23205
0.23409
0.236098
0.237689
0.239647
0.241586
0.243105
0.244241
0.244976
0.246086
0.247564
0.249378
0.251882
0.254309
0.256022
0.257356
0.25836
0.259004
0.259983
0.261283
0.262878
0.265081
0.267215
0.26872
0.26989
0.27077
0.271332
0.272188
0.273325
0.274722
0.276645
0.279319
0.282881
0.287062
0.29133
0.295295
0.298867
0.301976
0.304529
0.30658
0.308288
0.30975
0.31102
0.312128
0.313103
0.313963
0.314717
0.315368
0.315929
0.316403
0.316803
0.317136
0.317407
0.317622
0.317787
0.317913
0.318008
0.31808
0.318136
0.318179
0.318215
0.318245
0.318275
0.318303
0.318334
0.31836
0.318395
0.318427
0.318452
0.318646
0.31836
0.096324
0.114549
0.10587
0.0946203
0.0937426
0.0971301
0.105192
0.113391
0.12052
0.126647
0.132401
0.137872
0.143301
0.148719
0.154213
0.159684
0.165245
0.170894
0.176391
0.181433
0.185658
0.188939
0.191559
0.193466
0.195009
0.196185
0.196962
0.198147
0.19975
0.201767
0.20464
0.20755
0.209649
0.211328
0.212599
0.213433
0.214701
0.216402
0.21853
0.221523
0.224494
0.226609
0.228277
0.229531
0.230345
0.231579
0.233219
0.235251
0.237248
0.238828
0.240772
0.242694
0.244196
0.24532
0.246045
0.24714
0.248597
0.250384
0.252846
0.255229
0.256907
0.258212
0.259192
0.25982
0.260774
0.262041
0.263594
0.265738
0.267815
0.269276
0.27041
0.271263
0.271805
0.272632
0.273731
0.275082
0.276942
0.279532
0.282983
0.287029
0.29116
0.295006
0.298486
0.301541
0.304078
0.306145
0.307892
0.309408
0.310734
0.311901
0.312935
0.313849
0.314651
0.315344
0.315937
0.31644
0.316858
0.3172
0.317471
0.317681
0.317838
0.317954
0.318037
0.318099
0.318144
0.318178
0.318209
0.318234
0.318261
0.318285
0.318314
0.318341
0.318377
0.31841
0.318436
0.318635
0.31835
0.096328
0.114534
0.105843
0.0945682
0.0936678
0.0970431
0.105081
0.113261
0.120379
0.126506
0.132272
0.137764
0.143231
0.148707
0.154284
0.159865
0.165565
0.171378
0.177053
0.182265
0.186631
0.190016
0.192718
0.194679
0.196265
0.197473
0.19827
0.199485
0.201127
0.203191
0.206125
0.209087
0.211221
0.212926
0.214216
0.215062
0.216346
0.218068
0.220216
0.223233
0.226217
0.228336
0.230005
0.231258
0.23207
0.233302
0.234936
0.236957
0.238938
0.240504
0.242424
0.244319
0.245798
0.246902
0.247614
0.24869
0.250117
0.251865
0.254265
0.256578
0.258203
0.259463
0.260411
0.261017
0.261937
0.263159
0.264654
0.266709
0.268692
0.270085
0.271165
0.271979
0.272496
0.273286
0.274336
0.275624
0.277394
0.279853
0.283125
0.286961
0.29088
0.294548
0.297897
0.30088
0.303404
0.305503
0.307306
0.308897
0.310309
0.311566
0.312684
0.313674
0.314542
0.315295
0.315937
0.316475
0.316917
0.317272
0.317549
0.317757
0.317906
0.318012
0.318083
0.318131
0.318165
0.31819
0.318213
0.318231
0.318253
0.318273
0.318302
0.318327
0.318363
0.318396
0.318423
0.318622
0.318341
0.0963347
0.114513
0.105802
0.0944886
0.0935523
0.0969079
0.104904
0.11305
0.120145
0.126261
0.132025
0.137531
0.143036
0.148573
0.154252
0.159973
0.16586
0.171905
0.17784
0.183309
0.187891
0.191443
0.194269
0.19632
0.197974
0.199232
0.200062
0.201325
0.203029
0.205168
0.208199
0.211249
0.21344
0.215188
0.216508
0.217371
0.218682
0.220434
0.222618
0.225675
0.228685
0.230815
0.232487
0.233739
0.23455
0.235777
0.237401
0.239407
0.241367
0.242912
0.244801
0.24666
0.248106
0.249183
0.249874
0.250917
0.252299
0.253987
0.256297
0.258511
0.260059
0.261252
0.262144
0.262713
0.263576
0.264717
0.266115
0.268036
0.269884
0.271177
0.272174
0.272923
0.273396
0.274118
0.275079
0.276261
0.277891
0.280161
0.283194
0.286749
0.290398
0.293845
0.29704
0.299954
0.302485
0.30464
0.306528
0.308224
0.309747
0.311116
0.312345
0.313438
0.314398
0.315227
0.315933
0.316518
0.31699
0.317358
0.317633
0.31783
0.317962
0.318046
0.318095
0.318123
0.318137
0.318149
0.31816
0.318174
0.318192
0.318212
0.31824
0.318267
0.318307
0.318345
0.318376
0.318579
0.318301
0.0963443
0.114482
0.105742
0.0943721
0.0933812
0.0967055
0.104638
0.112727
0.119772
0.125854
0.131594
0.137093
0.142622
0.148212
0.153999
0.159892
0.166013
0.172379
0.178684
0.184535
0.189451
0.193258
0.196281
0.198469
0.20023
0.201567
0.202448
0.203788
0.20559
0.207848
0.211031
0.214217
0.216494
0.218306
0.21967
0.220561
0.221911
0.223711
0.22595
0.229061
0.232102
0.234242
0.235916
0.237167
0.237975
0.239196
0.240809
0.242795
0.244724
0.246241
0.248084
0.249889
0.251286
0.252323
0.252988
0.253992
0.255315
0.256924
0.259108
0.26117
0.262602
0.263703
0.264527
0.26505
0.265846
0.266898
0.268174
0.269907
0.271548
0.272694
0.273577
0.274245
0.274666
0.275314
0.276174
0.277225
0.278663
0.280658
0.283297
0.286418
0.289646
0.292761
0.295761
0.298613
0.301177
0.30344
0.305474
0.307323
0.30901
0.310534
0.311902
0.313121
0.314195
0.315122
0.315901
0.316537
0.317043
0.317429
0.317709
0.317897
0.31801
0.318071
0.318094
0.318097
0.318091
0.318087
0.318086
0.318091
0.318106
0.318126
0.318154
0.318185
0.318228
0.318268
0.318305
0.318513
0.31824
0.0963576
0.114438
0.10566
0.0942086
0.0931387
0.0964167
0.104255
0.112252
0.119211
0.125217
0.130895
0.136343
0.141854
0.147467
0.153345
0.159417
0.165829
0.172605
0.179447
0.18587
0.191305
0.195523
0.198867
0.201284
0.203224
0.20469
0.205657
0.207122
0.209084
0.211532
0.214963
0.218368
0.22079
0.222702
0.224135
0.225069
0.226478
0.22835
0.230663
0.233854
0.236944
0.239104
0.240783
0.242032
0.242836
0.24405
0.24565
0.247611
0.249507
0.250991
0.252787
0.254536
0.255879
0.256869
0.257499
0.258444
0.259683
0.261181
0.2632
0.265073
0.266348
0.267303
0.268005
0.268442
0.269098
0.26996
0.270999
0.272417
0.273747
0.27466
0.27534
0.27585
0.276164
0.276645
0.277291
0.278094
0.279221
0.280817
0.282982
0.285573
0.288346
0.291172
0.294018
0.296855
0.299501
0.301931
0.30413
0.306129
0.307962
0.309641
0.311179
0.312571
0.313809
0.314875
0.315764
0.316483
0.317041
0.317449
0.317725
0.317889
0.317967
0.317982
0.317967
0.317934
0.317904
0.317882
0.317873
0.317877
0.317893
0.317918
0.317957
0.317996
0.318051
0.3181
0.31815
0.31837
0.318112
0.0963763
0.114379
0.105548
0.0939908
0.0928067
0.0960211
0.103724
0.111581
0.118401
0.124272
0.129814
0.135138
0.140554
0.146107
0.152009
0.158231
0.16495
0.172254
0.179807
0.187103
0.193364
0.198243
0.202118
0.204915
0.207153
0.20884
0.20995
0.211628
0.213863
0.216635
0.220468
0.224217
0.226855
0.228918
0.23045
0.231444
0.232935
0.234897
0.237301
0.24057
0.243686
0.245841
0.247502
0.248732
0.249521
0.25071
0.25227
0.254175
0.256001
0.257423
0.259128
0.260771
0.26202
0.262937
0.263517
0.264391
0.265529
0.266891
0.268672
0.270259
0.271324
0.27212
0.272708
0.273075
0.273638
0.274361
0.275205
0.276261
0.277162
0.277762
0.278206
0.278548
0.278755
0.279084
0.279519
0.280039
0.280722
0.281655
0.282916
0.284543
0.286443
0.288673
0.291299
0.294185
0.297101
0.299858
0.30235
0.304578
0.306548
0.308411
0.310193
0.311825
0.313257
0.314472
0.315475
0.316276
0.31689
0.317328
0.317607
0.317749
0.317787
0.317764
0.3177
0.317632
0.317578
0.317542
0.317532
0.31754
0.317568
0.317607
0.317665
0.317718
0.317795
0.31786
0.317927
0.318167
0.317938
0.0963976
0.114307
0.105411
0.0937163
0.0923915
0.0955207
0.103046
0.110717
0.117323
0.122981
0.128292
0.133375
0.138555
0.143903
0.149667
0.155905
0.162854
0.170713
0.179213
0.187735
0.195254
0.201288
0.206067
0.209508
0.212253
0.214312
0.215667
0.217702
0.220393
0.223706
0.228222
0.232527
0.235509
0.237793
0.239455
0.240524
0.242106
0.244136
0.246574
0.249775
0.252775
0.254839
0.256431
0.257624
0.25839
0.259557
0.261106
0.263025
0.264894
0.266357
0.26813
0.269852
0.271159
0.272109
0.272702
0.273582
0.274701
0.276007
0.277663
0.279023
0.279839
0.280335
0.280633
0.28078
0.280957
0.281143
0.2813
0.281443
0.281487
0.281462
0.281362
0.28128
0.281203
0.281108
0.281014
0.280942
0.280948
0.280992
0.281219
0.281899
0.28323
0.285316
0.287991
0.291131
0.294465
0.297461
0.299932
0.30221
0.304331
0.306385
0.308457
0.310401
0.312111
0.313554
0.31474
0.315683
0.316395
0.316887
0.317174
0.317289
0.317287
0.317208
0.317092
0.316995
0.31693
0.316905
0.316916
0.316957
0.31703
0.317105
0.31721
0.317298
0.317418
0.317516
0.317625
0.317904
0.317732
0.0964232
0.114228
0.105254
0.0934182
0.0919169
0.0949502
0.102271
0.109707
0.116039
0.121419
0.126365
0.1311
0.135834
0.140784
0.146097
0.152084
0.158984
0.16713
0.176503
0.18647
0.195657
0.203084
0.2092
0.213697
0.217318
0.220046
0.221845
0.224553
0.228099
0.232442
0.238149
0.243263
0.246587
0.248992
0.250656
0.251701
0.2532
0.25507
0.257238
0.259956
0.262327
0.263903
0.265091
0.265998
0.266579
0.267492
0.268743
0.270345
0.271963
0.273256
0.274834
0.276364
0.277515
0.278371
0.278903
0.279731
0.280802
0.282096
0.283754
0.285175
0.28614
0.286902
0.287483
0.287848
0.288465
0.289218
0.289915
0.290274
0.290144
0.289655
0.289017
0.28855
0.288228
0.28774
0.287069
0.286186
0.284954
0.283413
0.281509
0.279625
0.279117
0.280172
0.282942
0.286882
0.290955
0.294246
0.296603
0.298958
0.30131
0.303617
0.306014
0.308303
0.310305
0.311974
0.313355
0.314486
0.315363
0.315975
0.316333
0.316473
0.316463
0.316351
0.316215
0.316122
0.316087
0.316105
0.316188
0.3163
0.31645
0.316588
0.316764
0.316909
0.317101
0.317249
0.317416
0.317757
0.317664
0.0964502
0.114144
0.105092
0.0931088
0.0914065
0.0943484
0.101426
0.108628
0.114613
0.11966
0.124119
0.128409
0.132442
0.13672
0.141248
0.146431
0.152647
0.160405
0.170094
0.181221
0.192392
0.201984
0.210448
0.216517
0.221445
0.225074
0.227412
0.23082
0.234973
0.239723
0.244773
0.248197
0.249967
0.250954
0.251518
0.251824
0.252255
0.252684
0.253207
0.25351
0.253468
0.253277
0.252968
0.252847
0.25285
0.252902
0.253073
0.2535
0.254134
0.254568
0.255019
0.255626
0.256332
0.2571
0.25763
0.258659
0.260322
0.26297
0.267092
0.270741
0.272933
0.274212
0.27492
0.27525
0.275594
0.275876
0.27608
0.27689
0.278187
0.278916
0.279298
0.279481
0.279548
0.279578
0.279554
0.279375
0.278741
0.277519
0.275373
0.272915
0.272466
0.274045
0.277668
0.282593
0.287188
0.290199
0.292012
0.293992
0.296498
0.299101
0.301851
0.30464
0.307104
0.309186
0.310935
0.312423
0.313613
0.314455
0.314972
0.315216
0.315262
0.31519
0.315095
0.315058
0.3151
0.31523
0.315442
0.31567
0.315935
0.316177
0.316454
0.316684
0.316962
0.317176
0.317425
0.31782
0.317816
0.0964743
0.114064
0.104934
0.0928033
0.0908905
0.0937533
0.100549
0.107574
0.113114
0.117817
0.121733
0.125406
0.128621
0.13188
0.135232
0.138843
0.143354
0.149427
0.157983
0.169209
0.182563
0.193804
0.20424
0.212292
0.217831
0.22149
0.223664
0.226798
0.229988
0.23436
0.23562
0.234316
0.232117
0.229298
0.226855
0.22512
0.222394
0.21875
0.214252
0.208548
0.205005
0.203144
0.203014
0.203257
0.203677
0.204905
0.206996
0.210342
0.214257
0.217731
0.222177
0.22633
0.22929
0.231642
0.232893
0.234892
0.238187
0.24062
0.247002
0.25773
0.267141
0.275938
0.282823
0.2874
0.294503
0.303166
0.310216
0.311899
0.309113
0.303502
0.299118
0.296267
0.294431
0.291942
0.289188
0.286003
0.28127
0.274339
0.265533
0.258625
0.257397
0.26093
0.268358
0.27563
0.280988
0.283408
0.28405
0.285356
0.288168
0.291518
0.29515
0.298979
0.302355
0.305107
0.307405
0.309385
0.311031
0.31228
0.313137
0.313651
0.313873
0.313895
0.313883
0.313917
0.31409
0.314355
0.314716
0.315087
0.315494
0.315858
0.316248
0.316571
0.316943
0.317223
0.317553
0.317984
0.318077
0.0964947
0.113998
0.104801
0.0925243
0.0904364
0.0932085
0.0997826
0.106601
0.111732
0.116149
0.119453
0.122533
0.124893
0.126934
0.128822
0.13032
0.132045
0.13476
0.140232
0.151035
0.164442
0.181714
0.201114
0.220492
0.238513
0.255413
0.270043
0.295287
0.334286
0.377008
0.396957
0.392974
0.38426
0.3713
0.360466
0.353068
0.34142
0.326252
0.304607
0.26911
0.241187
0.227844
0.227173
0.228322
0.230424
0.236854
0.249722
0.268903
0.288939
0.303944
0.318466
0.328472
0.334135
0.33683
0.338163
0.339447
0.339856
0.340959
0.341924
0.338796
0.328817
0.309315
0.294268
0.284334
0.27209
0.263474
0.263282
0.2669
0.270411
0.272407
0.274056
0.275424
0.276389
0.27803
0.280057
0.281633
0.280949
0.275821
0.261812
0.24611
0.240558
0.244586
0.254077
0.263556
0.269941
0.271905
0.271578
0.271944
0.274522
0.278682
0.283272
0.288219
0.292633
0.296216
0.299367
0.302308
0.304979
0.307248
0.309057
0.310378
0.311206
0.311643
0.31193
0.312214
0.312621
0.313102
0.313672
0.314228
0.314796
0.315291
0.315799
0.316213
0.316673
0.317011
0.317417
0.317873
0.318055
0.0965076
0.113954
0.104718
0.0922833
0.0901022
0.0927634
0.0992302
0.105773
0.110698
0.11475
0.117701
0.120118
0.121832
0.12289
0.123048
0.12271
0.121279
0.119635
0.12115
0.129462
0.153137
0.201766
0.299348
0.38602
0.451561
0.499888
0.525794
0.568618
0.607354
0.634069
0.621759
0.5909
0.55868
0.532489
0.513829
0.50224
0.485914
0.466888
0.435779
0.368945
0.306097
0.270563
0.255498
0.255766
0.257622
0.264694
0.284233
0.313306
0.34465
0.36856
0.389263
0.403995
0.411283
0.410462
0.408236
0.398998
0.365628
0.316877
0.235782
0.154054
0.124413
0.110341
0.101141
0.0948841
0.087964
0.0848782
0.0864834
0.0952804
0.109581
0.122234
0.133828
0.143052
0.149283
0.159318
0.17322
0.189749
0.209732
0.229077
0.233315
0.227533
0.227774
0.23502
0.246693
0.255945
0.260026
0.259503
0.256414
0.253494
0.253409
0.256132
0.260982
0.266322
0.272078
0.27799
0.284005
0.289874
0.295248
0.299881
0.303652
0.306429
0.308233
0.30929
0.309972
0.310524
0.311149
0.311822
0.312563
0.313264
0.313955
0.314546
0.315131
0.315599
0.316115
0.316484
0.316937
0.317397
0.31763
0.0965147
0.113932
0.104667
0.0921156
0.0898577
0.0924564
0.0988399
0.105192
0.109985
0.113726
0.116472
0.118418
0.119568
0.119877
0.119001
0.117024
0.113046
0.107047
0.104104
0.11617
0.177564
0.334506
0.461919
0.521175
0.553463
0.576497
0.587074
0.612656
0.618942
0.604732
0.561372
0.513228
0.478217
0.453503
0.435693
0.424361
0.410887
0.381254
0.322724
0.24018
0.169019
0.169983
0.183942
0.207968
0.228107
0.267201
0.326249
0.379785
0.443901
0.444111
0.412828
0.343287
0.270435
0.217862
0.195852
0.175222
0.131621
0.0983086
0.103414
0.153181
0.173825
0.174738
0.173796
0.172971
0.169001
0.161379
0.151197
0.139554
0.133557
0.132498
0.13381
0.137037
0.139889
0.144153
0.150688
0.159573
0.177014
0.201316
0.21593
0.216543
0.218584
0.226178
0.236037
0.246255
0.250425
0.248987
0.243927
0.237061
0.233109
0.232505
0.234451
0.238972
0.245574
0.255024
0.266501
0.277591
0.287229
0.295009
0.300814
0.3047
0.306967
0.30813
0.308788
0.309317
0.30997
0.310708
0.311536
0.312318
0.313076
0.313711
0.314334
0.314822
0.31536
0.315732
0.316211
0.316664
0.316924
0.0965179
0.113927
0.104624
0.0920107
0.0896775
0.0922544
0.0985749
0.104794
0.109509
0.113021
0.11559
0.117316
0.117933
0.117773
0.116294
0.113045
0.107121
0.0982504
0.0911314
0.114045
0.245026
0.396836
0.475408
0.440327
0.384842
0.386334
0.407271
0.41352
0.402718
0.372432
0.350256
0.314236
0.284411
0.262724
0.240398
0.222132
0.190357
0.146963
0.132672
0.117385
0.107905
0.129432
0.17724
0.211475
0.245493
0.276067
0.353127
0.427668
0.421148
0.37792
0.244708
0.118918
0.0831553
0.0817216
0.0868409
0.0991297
0.120598
0.16033
0.277295
0.352382
0.345215
0.311339
0.261662
0.241457
0.223522
0.214936
0.20913
0.19988
0.194641
0.194094
0.195419
0.19839
0.20175
0.205765
0.210946
0.214437
0.215924
0.219347
0.217672
0.208244
0.206014
0.209976
0.21687
0.230436
0.237181
0.239578
0.238119
0.233165
0.227676
0.223871
0.222691
0.224805
0.232032
0.244082
0.259282
0.273761
0.285771
0.294903
0.301212
0.304973
0.306801
0.307495
0.307839
0.308229
0.308864
0.309647
0.310542
0.311378
0.312181
0.312839
0.313481
0.313974
0.314528
0.314903
0.315403
0.315844
0.316132
0.0965216
0.113924
0.104588
0.0919328
0.089555
0.0921174
0.0983975
0.104513
0.10917
0.112553
0.11493
0.116583
0.116756
0.116338
0.114378
0.110239
0.103027
0.0919616
0.0824664
0.124155
0.279794
0.395942
0.358786
0.306861
0.293899
0.323668
0.359098
0.351942
0.322991
0.289261
0.244774
0.170147
0.120559
0.0842595
0.0734876
0.0748557
0.0810847
0.0691047
0.0622758
0.110712
0.127477
0.135607
0.154249
0.183787
0.224068
0.255542
0.346137
0.355622
0.279327
0.164645
0.0988367
0.0806429
0.0829101
0.0937905
0.106201
0.13169
0.186696
0.306447
0.41167
0.434739
0.394134
0.358528
0.284047
0.251957
0.224203
0.217558
0.216927
0.210749
0.207968
0.209604
0.214254
0.221475
0.227276
0.236675
0.249339
0.262833
0.266618
0.251687
0.224907
0.198951
0.189834
0.19026
0.199023
0.21726
0.229439
0.239045
0.242881
0.239995
0.232615
0.226507
0.22391
0.225667
0.233432
0.246754
0.262903
0.277483
0.28899
0.297414
0.30285
0.305649
0.306623
0.306738
0.306795
0.307081
0.307755
0.308613
0.309579
0.310464
0.311298
0.311973
0.312629
0.313133
0.3137
0.31408
0.314603
0.315032
0.315354
0.0965272
0.113919
0.104555
0.0918631
0.0894634
0.0920111
0.09826
0.104292
0.10889
0.112198
0.114403
0.115977
0.115868
0.115201
0.112849
0.108036
0.0998747
0.0870903
0.076395
0.131681
0.288313
0.362472
0.313428
0.260844
0.243315
0.303532
0.320779
0.256332
0.182893
0.119161
0.0650891
0.0511405
0.0519779
0.0508502
0.0567035
0.0692889
0.073397
0.0530007
0.0796039
0.130022
0.133309
0.128652
0.206835
0.295779
0.313298
0.298422
0.278704
0.169543
0.103542
0.089531
0.0810128
0.077793
0.092223
0.105964
0.122387
0.170573
0.276789
0.418534
0.495599
0.44479
0.402297
0.370061
0.274135
0.220368
0.148172
0.125053
0.126145
0.129849
0.137339
0.148589
0.166947
0.184073
0.199228
0.222688
0.247188
0.279958
0.300442
0.286697
0.237709
0.190181
0.171911
0.172522
0.188472
0.211615
0.23016
0.246903
0.253202
0.250543
0.242113
0.23507
0.232293
0.234697
0.243391
0.256558
0.271789
0.284572
0.293862
0.300365
0.304243
0.305823
0.305987
0.305703
0.305584
0.305853
0.306626
0.307584
0.308627
0.309556
0.310419
0.311109
0.311781
0.312294
0.31288
0.313268
0.313815
0.314236
0.314594
0.0965347
0.113897
0.104514
0.0918061
0.0893927
0.0919254
0.0981505
0.104128
0.108675
0.111934
0.114018
0.115492
0.115257
0.11436
0.111709
0.10642
0.0976033
0.083585
0.0728997
0.137257
0.289226
0.34168
0.256399
0.213981
0.199342
0.281818
0.2858
0.173579
0.0890164
0.0414963
0.0256529
0.0301534
0.0276612
0.0272295
0.0449087
0.06284
0.0706925
0.0504938
0.108866
0.146979
0.140918
0.295715
0.31731
0.353575
0.324709
0.149133
0.0874143
0.0844148
0.0690258
0.0629831
0.0593094
0.0592549
0.0705048
0.0835075
0.0911723
0.174242
0.328868
0.47597
0.534601
0.432241
0.384319
0.345603
0.195234
0.168516
0.0736283
0.0525244
0.051897
0.0539328
0.0639037
0.0768144
0.0993863
0.118175
0.147185
0.192876
0.233988
0.276297
0.31631
0.305734
0.245831
0.181531
0.157208
0.160831
0.184479
0.210674
0.233987
0.252068
0.259065
0.256913
0.248955
0.242433
0.240331
0.243393
0.252525
0.265169
0.279407
0.2905
0.297831
0.302431
0.304699
0.3052
0.304874
0.304353
0.304261
0.30465
0.305574
0.306638
0.30775
0.308718
0.309605
0.31031
0.310997
0.311525
0.312129
0.312526
0.313099
0.31351
0.313907
0.0965358
0.113892
0.104505
0.091783
0.0893473
0.0918668
0.0980729
0.104021
0.108532
0.111758
0.113766
0.115164
0.114856
0.113814
0.110955
0.105379
0.0961399
0.081365
0.0709794
0.140013
0.283821
0.326209
0.238673
0.198593
0.184641
0.228419
0.0576454
0.0681706
0.0580431
0.128734
0.165367
0.197166
0.346306
0.323649
0.333951
0.0523051
0.150257
0.35192
0.500058
0.545295
0.414603
0.360507
0.303909
0.147139
0.104179
0.136892
0.205985
0.2662
0.328407
0.322291
0.254927
0.175245
0.146981
0.154769
0.183081
0.209904
0.234655
0.252976
0.260443
0.259665
0.253293
0.247405
0.245634
0.248776
0.257703
0.269691
0.283221
0.293773
0.299972
0.303306
0.30453
0.304446
0.303793
0.303239
0.303221
0.303749
0.304795
0.305941
0.307105
0.308099
0.309003
0.309718
0.310419
0.310958
0.311577
0.311982
0.312573
0.312985
0.313399
0.096534
0.113895
0.104509
0.0917613
0.0892794
0.0917777
0.0979547
0.103866
0.108324
0.111499
0.1134
0.114672
0.114261
0.113012
0.109841
0.103864
0.0940136
0.0781873
0.0679957
0.142126
0.276336
0.30436
0.200567
0.165463
0.153542
0.178191
0.0508555
0.0658193
0.0668347
0.145263
0.178131
0.308219
0.37576
0.326183
0.322873
0.0412656
0.145106
0.383927
0.526657
0.551268
0.388231
0.326925
0.259469
0.119617
0.0483389
0.0591061
0.100527
0.204887
0.31954
0.335489
0.261505
0.166246
0.131389
0.149746
0.179814
0.206015
0.232125
0.251156
0.260712
0.262596
0.259427
0.255085
0.253582
0.256242
0.264221
0.274838
0.286883
0.296571
0.301773
0.303618
0.303567
0.302712
0.301724
0.301254
0.30143
0.302259
0.30351
0.304796
0.306039
0.307076
0.308008
0.308744
0.30947
0.310028
0.310672
0.311096
0.31171
0.312138
0.312566
0.0965364
0.113876
0.104487
0.0917203
0.0891836
0.0916564
0.0977957
0.103661
0.10805
0.111153
0.11293
0.114028
0.113484
0.111977
0.108401
0.101932
0.0913422
0.0743683
0.064423
0.142916
0.263795
0.281151
0.176842
0.14347
0.131801
0.132253
0.0542899
0.0723233
0.0638034
0.12979
0.173378
0.350223
0.385515
0.324138
0.319819
0.0513552
0.160201
0.423798
0.549373
0.54455
0.340223
0.277095
0.213672
0.102762
0.0528588
0.0555219
0.0630728
0.0916321
0.230539
0.313045
0.252257
0.139255
0.12089
0.146633
0.171402
0.19587
0.222142
0.243946
0.258774
0.265212
0.266508
0.26518
0.263753
0.26493
0.269928
0.278194
0.288843
0.297232
0.300799
0.301058
0.299959
0.298519
0.297737
0.297738
0.298526
0.299906
0.301495
0.302983
0.304339
0.305437
0.306414
0.307189
0.307959
0.308558
0.309248
0.309703
0.310362
0.310809
0.311274
0.0965412
0.113854
0.104454
0.0916667
0.0890718
0.0915167
0.0976047
0.103416
0.107719
0.110725
0.112373
0.113247
0.112544
0.110739
0.106699
0.0997007
0.0883525
0.0703848
0.0598296
0.137952
0.247286
0.257654
0.151464
0.116421
0.101577
0.0977631
0.0563555
0.0764332
0.0747019
0.0706229
0.187757
0.334562
0.35182
0.307085
0.325821
0.0795601
0.193286
0.46565
0.573269
0.489754
0.295793
0.243872
0.205167
0.116417
0.0624478
0.0702086
0.0679834
0.0735207
0.0911401
0.179748
0.170466
0.107206
0.107665
0.129408
0.150788
0.176765
0.21175
0.240191
0.258231
0.269311
0.274841
0.276515
0.275186
0.273132
0.273595
0.278054
0.285986
0.292052
0.294218
0.293827
0.292375
0.291441
0.291501
0.292538
0.294411
0.296494
0.298546
0.3003
0.301807
0.302995
0.304052
0.304898
0.305748
0.306414
0.307178
0.307686
0.308415
0.30889
0.309422
0.0965482
0.113827
0.104407
0.091587
0.0889292
0.0913402
0.0973593
0.10309
0.107286
0.110146
0.111647
0.112207
0.1113
0.10912
0.104505
0.0968916
0.0848075
0.0660325
0.053602
0.125883
0.231484
0.242528
0.138514
0.104339
0.0867323
0.0772296
0.0475498
0.069982
0.0705345
0.104524
0.261342
0.256819
0.282968
0.253636
0.292789
0.0904972
0.192478
0.463581
0.565465
0.455003
0.282014
0.235727
0.219909
0.151026
0.0628898
0.0679769
0.0585727
0.145307
0.179658
0.179091
0.143008
0.114115
0.0951659
0.0915699
0.113797
0.157281
0.205986
0.243323
0.265643
0.278241
0.28458
0.285537
0.282962
0.277968
0.274331
0.274376
0.276732
0.278291
0.278581
0.278503
0.278766
0.279911
0.282067
0.28484
0.287888
0.290778
0.293398
0.29553
0.297314
0.298715
0.299964
0.300979
0.30199
0.302791
0.303688
0.304296
0.305156
0.305675
0.306351
0.0965542
0.11381
0.104371
0.0914967
0.0888014
0.0911822
0.0971436
0.102784
0.106891
0.109597
0.110979
0.111238
0.110151
0.107638
0.102535
0.094454
0.0820448
0.0632449
0.04759
0.104808
0.21879
0.241554
0.148241
0.108637
0.0917804
0.0835285
0.0343983
0.0487988
0.0840873
0.271543
0.354426
0.202553
0.210601
0.207663
0.241732
0.0873644
0.157253
0.436041
0.547881
0.460708
0.294278
0.257609
0.25269
0.200782
0.0721824
0.0730517
0.0631478
0.127992
0.187534
0.211101
0.164889
0.106355
0.0774934
0.0673802
0.101771
0.157833
0.219336
0.263234
0.284066
0.289608
0.289673
0.28746
0.280674
0.272377
0.266961
0.264476
0.26188
0.2601
0.260039
0.261902
0.26527
0.269154
0.27312
0.276936
0.280644
0.284021
0.287056
0.289563
0.291702
0.293417
0.294949
0.296198
0.297418
0.298391
0.299456
0.300189
0.301221
0.30178
0.302659
0.0965595
0.113802
0.104347
0.0914258
0.0887218
0.0910812
0.0970068
0.102577
0.106625
0.109231
0.110532
0.110593
0.109387
0.106655
0.101247
0.0929098
0.0804427
0.062138
0.0444929
0.0845164
0.207192
0.244321
0.166971
0.122172
0.107005
0.103572
0.0321391
0.0732779
0.202019
0.356922
0.374316
0.188861
0.142538
0.17316
0.200001
0.0992091
0.155717
0.414149
0.53232
0.469074
0.319341
0.298075
0.298109
0.252548
0.0860205
0.0858027
0.05855
0.0982847
0.147487
0.172155
0.170202
0.106037
0.0738626
0.0696127
0.106703
0.167071
0.233785
0.281267
0.296926
0.294318
0.282786
0.269935
0.2592
0.251787
0.24878
0.247976
0.246674
0.246419
0.248326
0.252459
0.25739
0.262317
0.266862
0.271019
0.274968
0.278585
0.281899
0.284699
0.287131
0.289105
0.290864
0.292298
0.293687
0.294797
0.295998
0.296834
0.29801
0.298596
0.299664
0.0965652
0.113795
0.104322
0.091368
0.088661
0.0910093
0.0969016
0.102425
0.106414
0.10896
0.110177
0.110119
0.108802
0.105911
0.10026
0.0918242
0.0792445
0.0616774
0.043308
0.0652064
0.18981
0.248542
0.197556
0.147185
0.134831
0.134729
0.0884672
0.176658
0.2721
0.376407
0.348504
0.188589
0.0966057
0.154982
0.180826
0.11657
0.156533
0.394246
0.517024
0.483291
0.345108
0.325665
0.33362
0.294013
0.0960999
0.0988226
0.0567237
0.117456
0.145053
0.161651
0.16444
0.112265
0.0798091
0.0760021
0.111288
0.172408
0.240811
0.288447
0.301232
0.291383
0.266697
0.246601
0.23398
0.229047
0.229257
0.23183
0.234184
0.237173
0.241434
0.246612
0.251984
0.257045
0.261703
0.265983
0.270073
0.273879
0.27743
0.280481
0.28316
0.285346
0.287297
0.288887
0.29042
0.291651
0.292973
0.293902
0.295204
0.295816
0.297056
0.096572
0.113776
0.104284
0.0913234
0.0886102
0.0909534
0.096817
0.102319
0.106255
0.10877
0.109908
0.109795
0.108378
0.105371
0.0995495
0.0910711
0.0784033
0.061481
0.0430694
0.0530415
0.169917
0.248912
0.230182
0.172375
0.159592
0.193553
0.231975
0.254158
0.291995
0.366873
0.31002
0.176584
0.0726793
0.15232
0.189293
0.134257
0.158319
0.379633
0.503154
0.499191
0.365452
0.34634
0.366016
0.324636
0.105478
0.104077
0.0672101
0.128875
0.149615
0.161417
0.161421
0.118273
0.0875496
0.0813899
0.114423
0.174005
0.242397
0.289127
0.297233
0.281252
0.251616
0.22923
0.216944
0.213779
0.215871
0.22138
0.226893
0.232203
0.237615
0.243044
0.248232
0.253069
0.257636
0.26197
0.266185
0.270149
0.273884
0.277118
0.279975
0.282315
0.284407
0.286117
0.287763
0.289089
0.29051
0.291513
0.292925
0.293565
0.294943
0.0965728
0.113772
0.104276
0.0913093
0.0885772
0.0909146
0.0967578
0.102249
0.106154
0.108646
0.109731
0.109584
0.108104
0.105019
0.0991031
0.0905802
0.0779011
0.0613466
0.0434331
0.0451199
0.154651
0.247433
0.24825
0.198436
0.181024
0.216722
0.264901
0.148443
0.118012
0.117939
0.114213
0.117729
0.137336
0.184304
0.220656
0.271548
0.263311
0.29292
0.343623
0.289907
0.173469
0.065019
0.133457
0.173868
0.150984
0.129515
0.126868
0.100258
0.030601
0.00977952
0.00915218
0.0114718
0.0170901
0.060188
0.133616
0.157916
0.36976
0.497383
0.506724
0.375819
0.35654
0.3886
0.355796
0.18649
0.0655509
0.0664836
0.093291
0.101998
0.0657135
0.0519667
0.0449491
0.0666219
0.110709
0.102583
0.0828641
0.132017
0.151494
0.164901
0.161427
0.122323
0.0928775
0.0844193
0.115293
0.172872
0.239018
0.28144
0.286882
0.269369
0.240125
0.218811
0.208074
0.206039
0.209161
0.216161
0.2232
0.229588
0.235444
0.240823
0.245759
0.250368
0.254819
0.259164
0.263484