/*--------------------------------*- C++ -*----------------------------------*\
| =========                 |                                                 |
| \\      /  F ield         | OpenFOAM: The Open Source CFD Toolbox           |
|  \\    /   O peration     | Version:  v2006                                 |
|   \\  /    A nd           | Website:  www.openfoam.com                      |
|    \\/     M anipulation  |                                                 |
\*---------------------------------------------------------------------------*/
FoamFile
{
    version     2.0;
    format      ascii;
    class       volScalarField;
    location    "0.5";
    object      p;
}
// * * * * * * * * * * * * * * * * * * * * * * * * * * * * * * * * * * * * * //

dimensions      [0 2 -2 0 0 0 0];


internalField   nonuniform List<scalar> 
374400
(
39.6439
39.3583
38.9767
38.6341
38.2981
37.9489
37.5833
37.2013
36.8064
36.4026
35.9922
35.5763
35.1559
34.7322
34.3058
33.8772
33.4462
33.0129
32.6017
32.2377
31.9459
31.7269
31.5565
31.4349
31.3377
31.2648
31.2163
31.1435
31.0463
30.9248
30.7549
30.585
30.4638
30.3668
30.2942
30.2458
30.1732
30.0763
29.9553
29.7861
29.617
29.4965
29.4002
29.328
29.2799
29.2079
29.1117
28.9915
28.8715
28.7756
28.6558
28.5362
28.4406
28.3691
28.3214
28.2499
28.1546
28.0356
27.8692
27.7032
27.585
27.4905
27.4198
27.3727
27.302
27.2078
27.0902
26.9259
26.7621
26.6453
26.552
26.4822
26.4357
26.3659
26.2729
26.1568
25.9945
25.7632
25.4402
25.0258
24.543
24.0138
23.4365
22.8088
22.1527
21.4921
20.8274
20.1592
19.488
18.8143
18.1386
17.4609
16.7817
16.1012
15.4195
14.7369
14.0536
13.3697
12.6854
12.0007
11.3157
10.6305
9.94509
9.25958
8.57398
7.8883
7.20257
6.51679
5.83097
5.14509
4.45919
3.77325
3.08729
2.40129
1.71527
1.02932
0.341505
39.6469
39.3614
38.9798
38.6372
38.3013
37.9521
37.5865
37.2045
36.8097
36.4059
35.9954
35.5795
35.159
34.7351
34.3085
33.8795
33.4481
33.0143
32.6025
32.2379
31.9456
31.7262
31.5556
31.4337
31.3363
31.2633
31.2147
31.1417
31.0444
30.9227
30.7525
30.5823
30.4608
30.3637
30.2909
30.2424
30.1697
30.0727
29.9515
29.782
29.6127
29.492
29.3956
29.3233
29.2751
29.203
29.1066
28.9863
28.8662
28.7703
28.6504
28.5307
28.435
28.3634
28.3157
28.2442
28.1489
28.0298
27.8633
27.6974
27.5791
27.4846
27.4139
27.3668
27.2962
27.202
27.0845
26.9203
26.7565
26.6398
26.5466
26.4768
26.4303
26.3606
26.2677
26.1517
25.9896
25.7585
25.4359
25.0222
24.5401
24.0117
23.4352
22.8083
22.153
21.4928
20.8284
20.1604
19.4893
18.8157
18.1399
17.4622
16.7829
16.1022
15.4204
14.7377
14.0543
13.3703
12.6858
12.0011
11.316
10.6307
9.94528
9.25974
8.57411
7.88841
7.20266
6.51686
5.83102
5.14514
4.45923
3.77329
3.08732
2.40131
1.71529
1.02934
0.341509
39.653
39.3674
38.9859
38.6434
38.3075
37.9585
37.593
37.2111
36.8164
36.4126
36.0021
35.5861
35.1654
34.7411
34.314
33.8843
33.4521
33.0172
32.6042
32.2384
31.9451
31.7249
31.5536
31.4313
31.3335
31.2602
31.2114
31.1382
31.0405
30.9183
30.7474
30.5766
30.4547
30.3572
30.2842
30.2355
30.1626
30.0652
29.9436
29.7735
29.6037
29.4827
29.386
29.3135
29.2653
29.1929
29.0964
28.9758
28.8554
28.7593
28.6392
28.5193
28.4235
28.3518
28.3041
28.2325
28.1371
28.0179
27.8514
27.6854
27.5672
27.4727
27.402
27.3549
27.2844
27.1903
27.0728
26.9088
26.7452
26.6287
26.5356
26.466
26.4196
26.35
26.2573
26.1415
25.9797
25.7492
25.4275
25.0149
24.5343
24.0076
23.4328
22.8075
22.1535
21.4943
20.8307
20.1631
19.4922
18.8186
18.1427
17.4648
16.7852
16.1043
15.4223
14.7393
14.0557
13.3714
12.6868
12.0018
11.3166
10.6312
9.94569
9.26007
8.57438
7.88863
7.20284
6.51701
5.83115
5.14525
4.45932
3.77336
3.08738
2.40136
1.71533
1.02936
0.341517
39.662
39.3765
38.9951
38.6527
38.317
37.9681
37.6029
37.2212
36.8266
36.423
36.0125
35.5964
35.1755
34.7507
34.3229
33.8923
33.4587
33.0221
32.6072
32.2396
31.9446
31.7231
31.5508
31.4277
31.3293
31.2556
31.2064
31.1328
31.0344
30.9115
30.7395
30.5676
30.445
30.3469
30.2735
30.2245
30.1511
30.0532
29.9309
29.76
29.5893
29.4677
29.3705
29.2978
29.2493
29.1766
29.0797
28.9586
28.8379
28.7414
28.621
28.5008
28.4048
28.333
28.2852
28.2135
28.1179
27.9986
27.832
27.6659
27.5476
27.4533
27.3826
27.3356
27.2651
27.1711
27.0538
26.89
26.7268
26.6106
26.5178
26.4484
26.4021
26.3328
26.2404
26.125
25.9639
25.7344
25.4141
25.0035
24.5254
24.0014
23.4293
22.8066
22.1547
21.497
20.8343
20.1673
19.4966
18.823
18.1469
17.4687
16.7888
16.1074
15.425
14.7417
14.0576
13.3731
12.6882
12.0029
11.3175
10.6319
9.94627
9.26053
8.57475
7.88893
7.20309
6.51723
5.83134
5.14541
4.45946
3.77348
3.08747
2.40144
1.71538
1.02939
0.341529
39.6741
39.3887
39.0073
38.6652
38.3298
37.9812
37.6163
37.235
36.8408
36.4374
36.0271
35.611
35.1899
34.7647
34.336
33.9042
33.4689
33.03
32.6125
32.2421
31.9447
31.7212
31.5473
31.4232
31.3239
31.2494
31.1998
31.1255
31.0262
30.9021
30.7286
30.5551
30.4313
30.3324
30.2582
30.2089
30.1349
30.0361
29.9128
29.7405
29.5686
29.4461
29.3483
29.2751
29.2263
29.1532
29.0557
28.934
28.8127
28.7158
28.5949
28.4743
28.3781
28.306
28.2581
28.1863
28.0905
27.971
27.8043
27.6382
27.5201
27.4258
27.3552
27.3083
27.2379
27.1441
27.0271
26.8638
26.7012
26.5855
26.4932
26.424
26.378
26.309
26.217
26.1023
25.9421
25.7139
25.3958
24.9882
24.5137
23.9936
23.4254
22.8063
22.1572
21.5015
20.84
20.1736
19.5032
18.8294
18.153
17.4743
16.7938
16.1119
15.4289
14.745
14.0604
13.3754
12.69
12.0045
11.3187
10.6329
9.94703
9.26113
8.57523
7.88932
7.20342
6.51751
5.83158
5.14562
4.45964
3.77363
3.0876
2.40154
1.71545
1.02944
0.341544
39.6891
39.4037
39.0226
38.6808
38.3458
37.9977
37.6334
37.2527
36.8591
36.4564
36.0466
35.6308
35.2097
34.7841
34.3547
33.9214
33.484
33.0423
32.6212
32.2469
31.946
31.7198
31.5437
31.4179
31.3172
31.2418
31.1915
31.1161
31.0155
30.8897
30.7137
30.5379
30.4124
30.3122
30.2371
30.1871
30.1121
30.0121
29.8873
29.713
29.5391
29.4154
29.3166
29.2427
29.1935
29.1197
29.0214
28.8987
28.7765
28.679
28.5573
28.4361
28.3394
28.2671
28.219
28.1469
28.0509
27.9311
27.7641
27.598
27.4799
27.3858
27.3154
27.2685
27.1984
27.1049
26.9883
26.8258
26.6641
26.5491
26.4574
26.3888
26.3431
26.2747
26.1835
26.0698
25.9111
25.6853
25.3705
24.9674
24.4984
23.9839
23.4213
22.8071
22.1617
21.5084
20.8483
20.1825
19.512
18.8379
18.1608
17.4814
16.8001
16.1174
15.4335
14.7489
14.0637
13.3781
12.6922
12.0062
11.3201
10.634
9.94789
9.26181
8.57577
7.88977
7.2038
6.51783
5.83187
5.14588
4.45987
3.77383
3.08776
2.40166
1.71555
1.02949
0.341566
39.7068
39.4216
39.0408
38.6994
38.365
38.0177
37.6543
37.2746
36.8821
36.4804
36.0716
35.6566
35.2361
34.8106
34.3807
33.9461
33.5064
33.0611
32.6354
32.256
31.9503
31.7201
31.5407
31.4126
31.31
31.2331
31.1818
31.105
31.0023
30.8741
30.6946
30.5153
30.3874
30.2853
30.2088
30.1579
30.0815
29.9798
29.8528
29.6755
29.499
29.3735
29.2734
29.1985
29.1487
29.074
28.9746
28.8506
28.7273
28.629
28.5065
28.3845
28.2873
28.2147
28.1664
28.0941
27.9978
27.8779
27.7109
27.5451
27.4275
27.3337
27.2636
27.2169
27.147
27.0541
26.9382
26.7769
26.6168
26.503
26.4122
26.3443
26.2991
26.2314
26.1412
26.0288
25.8721
25.6492
25.339
24.9423
24.4807
23.9741
23.4189
22.8109
22.1699
21.5193
20.8605
20.195
19.5243
18.8494
18.1713
17.4908
16.8084
16.1245
15.4396
14.7539
14.0678
13.3814
12.6949
12.0083
11.3217
10.6352
9.94884
9.26255
8.57636
7.89025
7.20421
6.5182
5.8322
5.14618
4.46014
3.77406
3.08796
2.40182
1.71566
1.02956
0.341593
39.7272
39.4422
39.0617
38.721
38.3875
38.0413
37.6792
37.301
36.9102
36.5102
36.1032
35.6899
35.2707
34.8462
34.4166
33.9813
33.5394
33.0903
32.6588
32.2725
31.96
31.7241
31.54
31.4083
31.3029
31.2237
31.171
31.0919
30.9863
30.8543
30.6695
30.485
30.3535
30.2485
30.1699
30.1176
30.0392
29.9348
29.8045
29.6229
29.4424
29.3142
29.212
29.1357
29.0849
29.0089
28.9078
28.7818
28.6567
28.5571
28.4331
28.3099
28.2118
28.1387
28.0901
28.0174
27.9207
27.8003
27.6329
27.4671
27.3496
27.2562
27.1865
27.1402
27.071
26.9788
26.864
26.7044
26.5462
26.434
26.3447
26.2781
26.2338
26.1675
26.0793
25.9693
25.8161
25.5985
25.2958
24.909
24.4589
23.9638
23.4188
22.8188
22.1831
21.5352
20.8774
20.2118
19.5401
18.8639
18.1843
17.5021
16.8181
16.1327
15.4464
14.7595
14.0723
13.385
12.6977
12.0104
11.3234
10.6365
9.94976
9.26326
8.57693
7.89075
7.20465
6.51861
5.83258
5.14654
4.46047
3.77436
3.08821
2.40202
1.71581
1.02964
0.341637
39.7498
39.465
39.0851
38.7452
38.4129
38.0682
37.708
37.332
36.9436
36.5464
36.1423
35.7319
35.3157
34.8937
34.4659
34.0312
33.5882
33.1353
32.6971
32.3019
31.9799
31.7357
31.5445
31.4076
31.2978
31.2154
31.1605
31.078
30.9678
30.8301
30.6372
30.4448
30.3078
30.1985
30.1168
30.0624
29.981
29.8726
29.7376
29.5498
29.3636
29.2318
29.127
29.0487
28.9968
28.919
28.8158
28.6874
28.5603
28.4593
28.3339
28.2097
28.111
28.0376
27.9888
27.9159
27.8191
27.699
27.5326
27.3685
27.2526
27.1603
27.0914
27.0456
26.9771
26.8862
26.7733
26.6167
26.462
26.3525
26.2652
26.2
26.1566
26.0916
26.0053
25.898
25.7488
25.5375
25.2445
24.8713
24.4372
23.9576
23.4258
22.8352
22.205
21.5594
20.9017
20.2347
19.5611
18.8826
18.2006
17.5163
16.8301
16.1428
15.4547
14.7662
14.0776
13.3891
12.7008
12.0128
11.325
10.6377
9.9506
9.26387
8.57742
7.89118
7.20508
6.51903
5.833
5.14695
4.46084
3.77469
3.0885
2.40225
1.71598
1.02972
0.341697
39.7732
39.4888
39.1095
38.7707
38.4398
38.0971
37.7393
37.3662
36.9811
36.5878
36.188
35.7825
35.3712
34.9542
34.531
34.0998
33.6582
33.2033
32.7583
32.3521
32.017
31.7608
31.559
31.4139
31.2975
31.21
31.1516
31.0639
30.9467
30.8001
30.5949
30.3906
30.2455
30.13
30.0437
29.9864
29.9006
29.7865
29.6447
29.448
29.2538
29.1168
29.008
28.9269
28.873
28.7925
28.6858
28.5534
28.4227
28.3192
28.1909
28.0643
27.9641
27.8898
27.8405
27.767
27.6695
27.5488
27.382
27.2179
27.1023
27.0109
26.943
26.898
26.8308
26.7415
26.6308
26.4775
26.3264
26.2203
26.1364
26.0741
26.0329
25.9713
25.8895
25.7878
25.6469
25.4477
25.1723
24.8223
24.4138
23.9573
23.4426
22.8626
22.2371
21.5924
20.9331
20.2634
19.5867
18.905
18.22
17.5326
16.8437
16.1539
15.4636
14.7732
14.083
13.3931
12.7038
12.0149
11.3265
10.6386
9.95122
9.26431
8.5778
7.89158
7.20551
6.51951
5.8335
5.14744
4.46131
3.77512
3.08887
2.40255
1.7162
1.02982
0.341786
39.7959
39.5117
39.1332
38.7955
38.4663
38.1258
37.7707
37.401
37.0201
36.6316
36.2375
35.8385
35.4347
35.0258
34.6108
34.1876
33.7522
33.2998
32.8507
32.433
32.0813
31.8083
31.5911
31.4338
31.3071
31.2114
31.1475
31.0514
30.9229
30.7622
30.5374
30.3143
30.1567
30.0319
29.939
29.8775
29.7856
29.6637
29.5129
29.3048
29.1009
28.9576
28.8442
28.7599
28.704
28.6205
28.5102
28.3738
28.2401
28.1348
28.005
27.8782
27.7785
27.7049
27.6562
27.5836
27.4883
27.3711
27.2109
27.055
26.9452
26.8576
26.7921
26.7483
26.6826
26.5962
26.4888
26.3401
26.194
26.0908
26.0084
25.9472
25.9064
25.8455
25.7656
25.6671
25.5322
25.3444
25.0896
24.7702
24.3964
23.9695
23.4749
22.9057
22.2832
21.6364
20.9728
20.2981
19.6164
18.9302
18.2411
17.5502
16.8582
16.1655
15.4727
14.7802
14.0882
13.397
12.7064
12.0167
11.3275
10.6391
9.95144
9.26441
8.57793
7.89181
7.20587
6.51997
5.83402
5.14798
4.46183
3.77559
3.08928
2.40287
1.71645
1.02992
0.341885
39.817
39.5332
39.1553
38.8188
38.4913
38.1531
37.8011
37.4351
37.0588
36.6759
36.2886
35.8978
35.5037
35.1062
34.7043
34.295
33.8732
33.4314
32.9848
32.5578
32.1853
31.8873
31.6451
31.4679
31.3246
31.2164
31.1444
31.0361
30.8905
30.7088
30.4558
30.2082
30.0362
29.901
29.8009
29.7346
29.6358
29.5059
29.346
29.1267
28.9125
28.7613
28.6406
28.5501
28.49
28.4004
28.2817
28.1352
27.9926
27.8817
27.7469
27.617
27.5162
27.4428
27.3946
27.3235
27.2304
27.1163
26.962
26.8093
26.6998
26.6126
26.5475
26.5047
26.4406
26.3545
26.2476
26.1001
25.9568
25.8578
25.7809
25.7246
25.6878
25.6331
25.5607
25.4719
25.3517
25.1874
24.9712
24.7068
24.3898
24.0035
23.5292
22.9656
22.3408
21.6887
21.0188
20.3377
19.6501
18.9587
18.2648
17.5697
16.8738
16.1779
15.4821
14.7871
14.0932
13.4005
12.7088
12.018
11.3282
10.6393
9.95133
9.26428
8.57793
7.89201
7.20628
6.52054
5.83467
5.14864
4.46247
3.77617
3.08978
2.40328
1.71676
1.03007
0.342003
39.836
39.5525
39.1753
38.8399
38.5141
38.1782
37.8292
37.4671
37.0955
36.7187
36.3389
35.9574
35.5749
35.1918
34.8075
34.4191
34.0209
33.6024
33.1713
32.7432
32.3502
32.0241
31.7529
31.5515
31.3868
31.2607
31.1759
31.0467
30.8687
30.6414
30.323
30.0196
29.8145
29.6576
29.5457
29.473
29.3666
29.2313
29.0707
28.8591
28.6591
28.5185
28.404
28.3155
28.2556
28.1647
28.0422
27.8879
27.7366
27.6194
27.4779
27.3454
27.2451
27.1736
27.127
27.059
26.9731
26.8712
26.7401
26.6228
26.5408
26.4752
26.425
26.3905
26.3377
26.2658
26.17
26.0196
25.8577
25.7426
25.6503
25.5818
25.5369
25.4708
25.3862
25.2863
25.1589
25.0017
24.8222
24.6297
24.3893
24.0552
23.607
23.049
22.417
21.7534
21.0716
20.3802
19.6844
18.9867
18.2878
17.5884
16.8889
16.1897
15.491
14.7936
14.0977
13.4035
12.7108
12.0191
11.3285
10.639
9.95078
9.26377
8.57767
7.8921
7.20668
6.52115
5.8354
5.1494
4.46319
3.77682
3.09035
2.40373
1.71711
1.03025
0.342168
39.8518
39.5685
39.1918
38.8574
38.5331
38.1993
37.853
37.4943
37.1272
36.756
36.3834
36.0109
35.6402
35.2724
34.9079
34.5453
34.1794
33.7985
33.4005
32.9828
32.5701
32.206
31.8788
31.6086
31.3703
31.1768
31.0435
30.841
30.577
30.2682
29.9024
29.6133
29.4396
29.31
29.2169
29.1572
29.0698
28.955
28.8134
28.6177
28.4226
28.2661
28.1275
28.0129
27.9334
27.8125
27.6486
27.4464
27.2683
27.1451
27.0088
26.8974
26.8224
26.7747
26.746
26.7065
26.6605
26.6104
26.5341
26.3979
26.2773
26.1818
26.111
26.062
25.9865
25.8907
25.7836
25.6507
25.5196
25.4224
25.344
25.2861
25.2475
25.1896
25.117
25.0316
24.9248
24.7983
24.6765
24.5722
24.4156
24.1351
23.7058
23.1424
22.4958
21.8176
21.1238
20.4223
19.7183
19.0143
18.3106
17.6072
16.9043
16.2017
15.5
14.7998
14.1019
13.4063
12.7125
12.02
11.3285
10.6385
9.94999
9.26307
8.57732
7.89218
7.20711
6.52182
5.83618
5.15019
4.46393
3.77748
3.09091
2.40417
1.71747
1.03042
0.34235
39.8635
39.5802
39.204
38.8705
38.5473
38.2151
37.8709
37.5149
37.1514
36.7847
36.4178
36.0528
35.6918
35.3371
34.9901
34.6516
34.3189
33.9812
33.6301
33.239
32.8021
32.3491
31.8682
31.4474
31.1067
30.8663
30.7121
30.5008
30.2759
30.0363
29.7075
29.4131
29.2395
29.098
28.9835
28.9053
28.7899
28.659
28.5259
28.4018
28.3083
28.1802
28.0296
27.8807
27.7699
27.5926
27.3278
26.9785
26.7234
26.5909
26.4776
26.4249
26.41
26.411
26.4144
26.4244
26.4574
26.5181
26.6419
26.7912
26.7768
26.6845
26.5678
26.4774
26.3284
26.1159
25.8549
25.5389
25.2862
25.1227
25.0028
24.9235
24.8746
24.8064
24.7257
24.64
24.5518
24.4816
24.4783
24.5253
24.4758
24.244
23.8215
23.2413
22.5716
21.8743
21.1661
20.454
19.7426
19.0336
18.3272
17.622
16.9168
16.2115
15.5071
14.8046
14.1051
13.4087
12.7141
12.0209
11.3288
10.6381
9.94918
9.26227
8.57683
7.8921
7.2074
6.52235
5.83681
5.15083
4.46453
3.778
3.09135
2.40452
1.71774
1.03054
0.342526
39.8715
39.5882
39.2122
38.8793
38.557
38.2259
37.8832
37.5291
37.168
36.8045
36.4418
36.0822
35.7282
35.3829
35.049
34.7286
34.4222
34.1215
33.817
33.459
32.9967
32.4434
31.8737
31.4404
31.118
30.8894
30.7387
30.5423
30.3299
30.0125
29.4897
29.0752
28.8429
28.6719
28.5476
28.4734
28.3796
28.2878
28.2283
28.3082
28.4707
28.3932
28.1892
27.8838
27.6279
27.2071
26.696
26.2
25.9833
25.933
25.9307
25.9443
25.9553
25.9591
25.9709
26.0252
26.2044
26.521
26.7277
26.4528
26.1605
25.9778
25.8736
25.8119
25.7344
25.659
25.5762
25.4542
25.3085
25.1998
25.1103
25.0415
24.9955
24.9259
24.835
24.7267
24.6029
24.494
24.4858
24.5755
24.5638
24.3491
23.9233
23.3248
22.6335
21.9183
21.1969
20.4753
19.758
19.0464
18.3393
17.6338
16.9273
16.2197
15.513
14.8089
14.1085
13.4116
12.7165
12.0226
11.3297
10.6381
9.94871
9.26164
8.57634
7.89191
7.2075
6.52266
5.83723
5.15128
4.46495
3.77836
3.09165
2.40474
1.71792
1.03058
0.342685
39.8769
39.5936
39.2177
38.8853
38.5635
38.2332
37.8914
37.5387
37.1794
36.8181
36.4581
36.1023
35.7532
35.4144
35.0895
34.7818
34.4939
34.2203
33.9528
33.6188
33.1483
32.5875
32.1185
31.7592
31.4722
31.2295
31.0017
30.6375
30.1335
29.5519
28.9909
28.7724
28.6374
28.4944
28.3632
28.2732
28.1389
28.0063
27.9309
28.1041
28.4168
28.344
28.0168
27.535
27.1583
26.5791
25.9968
25.602
25.6111
25.7124
25.818
25.8767
25.9167
25.9546
25.9783
26.0047
26.0292
26.0418
25.9188
25.7097
25.673
25.7238
25.7732
25.796
25.8246
25.8305
25.7889
25.6575
25.476
25.3284
25.2036
25.1074
25.0433
24.9488
24.8437
24.7259
24.5772
24.4429
24.464
24.603
24.6243
24.4263
24.0001
23.3875
22.6788
21.949
21.2172
20.489
19.7685
19.0558
18.3486
17.6425
16.9347
16.2256
15.5178
14.8134
14.1128
13.4155
12.7198
12.025
11.3307
10.6382
9.94819
9.26093
8.57576
7.8916
7.20746
6.52281
5.83748
5.15156
4.46522
3.77859
3.09184
2.40487
1.71802
1.03057
0.342812
39.8806
39.5972
39.2215
38.8895
38.5681
38.2382
37.8972
37.5454
37.1872
36.8275
36.4695
36.1163
35.7706
35.4364
35.1177
34.8188
34.5438
34.2893
34.0482
33.7325
33.2695
32.7881
32.4644
32.1475
31.8387
31.5057
31.0605
30.2718
29.4435
28.9919
28.6712
28.6362
28.5669
28.4657
28.3439
28.2517
28.1119
27.9753
27.8663
28.0756
28.4623
28.292
27.9608
27.3879
26.8858
26.1393
25.5104
25.292
25.4619
25.6201
25.7938
25.9062
25.9417
25.9421
25.94
25.9167
25.8259
25.625
25.355
25.4703
25.7551
26.0502
26.2216
26.2559
26.2245
26.1333
26.0085
25.8059
25.5716
25.3662
25.1905
25.0488
24.9539
24.8247
24.6915
24.5389
24.3695
24.2681
24.385
24.597
24.6558
24.477
24.0529
23.4318
22.7103
21.9703
21.2319
20.5004
19.7784
19.065
18.3568
17.6493
16.94
16.2299
15.5218
14.8176
14.117
13.4194
12.723
12.0269
11.3314
10.638
9.94754
9.26019
8.57518
7.89126
7.20735
6.52286
5.83763
5.15173
4.46539
3.77874
3.09196
2.40494
1.71809
1.03054
0.34291
39.8835
39.6001
39.2244
38.8927
38.5716
38.2422
37.9017
37.5506
37.1934
36.8349
36.4785
36.1273
35.7843
35.4536
35.1398
34.8477
34.5826
34.3431
34.1219
33.8232
33.3798
33.011
32.8718
32.5931
32.2233
31.2524
30.3308
29.5824
28.8536
28.803
28.7086
28.6266
28.518
28.4043
28.2815
28.1904
28.0444
27.915
27.8239
28.0095
28.3514
28.2594
27.8708
26.9818
26.3005
25.6968
25.3506
25.4943
25.5916
25.6534
25.8258
25.9415
25.9646
25.9605
25.9627
25.9101
25.7076
25.3201
25.0832
25.5802
26.1916
26.6092
26.6645
26.5634
26.3307
26.0436
25.8302
25.6293
25.4119
25.2168
25.0089
24.8087
24.6598
24.5031
24.3787
24.2204
24.068
24.0447
24.2871
24.5759
24.671
24.5122
24.093
23.4661
22.7349
21.9878
21.2451
20.5116
19.7885
19.0741
18.3646
17.6553
16.9444
16.2336
15.5254
14.8214
14.1209
13.4229
12.7256
12.0284
11.3318
10.6376
9.94682
9.25945
8.5746
7.89092
7.20723
6.52288
5.83772
5.15185
4.46551
3.77884
3.09203
2.40499
1.71812
1.0305
0.34299
39.8856
39.6022
39.2266
38.8951
38.5742
38.245
37.905
37.5544
37.1979
36.8403
36.4851
36.1353
35.7943
35.4663
35.156
34.8687
34.6106
34.3816
34.1743
33.8886
33.4715
33.2113
33.2511
33.1597
32.9896
30.9364
28.1341
29.4
28.7841
28.9237
28.713
28.6203
28.5014
28.3761
28.2301
28.1565
28.013
27.8967
27.7976
27.9169
28.2274
28.1742
27.845
26.5346
25.1611
25.6154
25.3675
25.4904
25.5838
25.6867
25.8637
25.9826
25.9729
25.8607
25.9592
25.9389
25.6555
25.1502
25.0678
25.907
26.7723
27.2011
26.7771
26.0564
26.1025
25.921
25.7588
25.5894
25.378
25.1673
24.9221
24.5801
24.2537
24.2163
24.0828
23.8835
23.7503
23.8203
24.1916
24.5476
24.6735
24.5332
24.1204
23.4905
22.7534
22.0022
21.257
20.5221
19.798
19.0824
18.3711
17.6601
16.948
16.2366
15.5284
14.8246
14.124
13.4256
12.7274
12.0292
11.3319
10.6371
9.9461
9.25876
8.57409
7.89061
7.20709
6.52287
5.83777
5.15193
4.46558
3.7789
3.09208
2.40501
1.71814
1.03046
0.343047
39.887
39.6036
39.228
38.8966
38.5759
38.2469
37.9071
37.557
37.2009
36.8439
36.4894
36.1406
35.801
35.4746
35.1666
34.8825
34.6289
34.4066
34.2083
33.9297
33.5317
33.3485
33.5077
33.6066
33.6529
32.4536
28.0974
27.9872
27.8817
27.7732
27.8537
28.1213
28.041
27.7856
26.9963
26.0519
25.9806
25.6375
25.0618
25.0977
26.1732
27.19
27.6148
27.2888
23.8329
24.0795
23.9122
23.6729
23.5331
23.6604
24.1228
24.5245
24.6719
24.5453
24.1378
23.5063
22.766
22.0124
21.2656
20.5298
19.8049
19.0883
18.3757
17.6634
16.9504
16.2386
15.5305
14.8267
14.126
13.4272
12.7285
12.0297
11.3318
10.6367
9.94556
9.25827
8.57373
7.89039
7.20699
6.52285
5.8378
5.15197
4.46562
3.77893
3.09211
2.40502
1.71815
1.03042
0.343083
39.889
39.6057
39.2302
38.8989
38.5784
38.2497
37.9103
37.5607
37.2053
36.8492
36.4958
36.1485
35.8108
35.4869
35.1823
34.9028
34.6558
34.4431
34.2579
33.9892
33.6285
33.5629
33.8941
34.2423
34.4774
34.1579
28.0244
27.944
27.8437
27.6978
27.7246
27.86
27.8185
27.7446
27.484
26.0369
25.9854
25.6072
24.9758
25.2225
26.6125
27.7791
28.1044
27.831
23.9926
23.9386
23.6969
23.4074
23.2244
23.4189
24.0165
24.4842
24.6646
24.5607
24.1628
23.5297
22.7856
22.0289
21.2799
20.5425
19.8163
19.0979
18.3831
17.6687
16.9544
16.2422
15.5339
14.83
14.1288
13.4295
12.7299
12.0301
11.3315
10.636
9.94469
9.25748
8.57315
7.89004
7.20683
6.52281
5.83782
5.15202
4.46567
3.77897
3.09214
2.40503
1.71815
1.03037
0.343135
39.8916
39.6084
39.233
38.9018
38.5816
38.2534
37.9145
37.5655
37.211
36.856
36.5042
36.1588
35.8235
35.5029
35.2026
34.9288
34.6898
34.4886
34.3192
34.0655
33.7633
33.8335
34.3435
34.894
35.283
35.207
27.9549
27.8708
27.7448
27.544
27.491
27.5592
27.6133
27.789
27.7716
26.0723
26.0195
25.5985
24.9595
25.4625
27.1344
28.3394
28.3855
28.0664
23.7694
23.7079
23.4758
23.1739
22.9328
23.1531
23.8792
24.4221
24.6454
24.5761
24.1939
23.5621
22.8147
22.0545
21.3024
20.5625
19.8336
19.1121
18.394
17.6768
16.9608
16.2479
15.5393
14.8346
14.1323
13.4319
12.7308
12.0301
11.3307
10.6347
9.94334
9.25632
8.57231
7.88952
7.20656
6.52271
5.83782
5.15205
4.46571
3.779
3.09216
2.40502
1.71814
1.03028
0.343201
39.8947
39.6116
39.2363
38.9053
38.5854
38.2577
37.9195
37.5714
37.2179
36.8644
36.5143
36.1712
35.8389
35.5222
35.2269
34.9598
34.7296
34.5408
34.3884
34.1554
33.9144
34.1146
34.768
35.4489
35.9219
35.9388
27.8593
27.8048
27.6535
27.4657
27.3801
27.3897
27.5192
27.9308
28.0693
26.2005
26.1427
25.6895
25.0818
25.7324
27.5621
28.7182
28.4526
28.1187
23.7177
23.578
23.3391
23.0588
22.7474
22.964
23.7343
24.3345
24.6164
24.592
24.2302
23.603
22.8531
22.0898
21.3343
20.5906
19.8575
19.1314
18.4089
17.6883
16.9702
16.2564
15.547
14.8405
14.1363
13.4339
12.7312
12.0294
11.3293
10.633
9.94158
9.25482
8.5712
7.88881
7.20617
6.52253
5.83775
5.15204
4.46572
3.779
3.09215
2.40498
1.71811
1.03014
0.343285
39.8989
39.6159
39.2408
38.91
38.5906
38.2636
37.9262
37.5792
37.2272
36.8755
36.5278
36.1878
35.8594
35.5478
35.259
34.9999
34.7797
34.6033
34.4691
34.2661
34.0702
34.338
35.0613
35.8031
36.3184
36.3547
27.837
27.8423
27.7975
27.696
27.5788
27.5714
27.7526
28.3049
28.6076
26.6385
26.5402
26.1058
25.4538
25.8738
27.5742
28.5819
28.1291
27.8502
23.8441
23.6831
23.5107
23.2915
22.996
23.0325
23.6396
24.2203
24.5506
24.5664
24.2396
23.6382
22.9031
22.1439
21.386
20.6365
19.8961
19.1625
18.433
17.7071
16.9859
16.2703
15.5586
14.8489
14.1412
13.4351
12.7308
12.0277
11.327
10.6304
9.93922
9.25284
8.5697
7.88777
7.20549
6.52211
5.8375
5.15188
4.46561
3.77891
3.09206
2.40487
1.71801
1.02986
0.343424
39.9028
39.6198
39.2448
38.9143
38.5954
38.2689
37.9324
37.5864
37.2358
36.8858
36.5403
36.2031
35.8784
35.5712
35.288
35.0353
34.8217
34.6513
34.5274
34.3525
34.1393
34.3159
34.9688
35.6976
36.2383
36.2864
27.9612
27.9743
27.9805
27.883
27.8855
28.0515
28.2104
28.6933
29.1769
26.9805
26.838
26.4476
25.747
25.8622
27.2922
28.0824
27.4066
27.1567
23.6081
23.5169
23.4654
23.397
23.2848
23.3689
23.7581
24.1875
24.4628
24.4851
24.2068
23.6613
22.9568
22.206
21.445
20.6876
19.9379
19.1948
18.4567
17.724
16.9984
16.2796
15.5649
14.8529
14.1437
13.4367
12.731
12.027
11.3257
10.6289
9.9376
9.25133
8.56843
7.88674
7.20467
6.52145
5.83699
5.15149
4.46531
3.77867
3.09186
2.40465
1.71783
1.02945
0.343594
39.9054
39.6223
39.2475
38.9173
38.5986
38.2725
37.9365
37.5913
37.2415
36.8927
36.5487
36.2134
35.891
35.5868
35.3071
35.0582
34.8479
34.6788
34.5564
34.4052
34.1667
34.1952
34.6768
35.2931
35.8087
35.8147
27.9394
27.9738
27.9877
27.9641
28.1372
28.4929
28.5349
28.7748
29.3133
27.0288
26.8611
26.5137
25.8341
25.7895
26.8968
27.3758
26.5762
26.4019
23.5242
23.4742
23.4441
23.3911
23.3323
23.4165
23.7988
24.1887
24.4088
24.4374
24.2003
23.6937
23.007
22.2579
21.4908
20.7251
19.9669
19.2157
18.4704
17.7327
17.0037
16.2823
15.5662
14.8535
14.1445
13.4378
12.7319
12.0275
11.3257
10.6285
9.93685
9.25049
8.56763
7.88603
7.20405
6.52092
5.83655
5.15114
4.46503
3.77845
3.09167
2.40445
1.71767
1.02911
0.343732
39.9073
39.6243
39.2495
38.9195
38.601
38.2753
37.9397
37.5949
37.2459
36.8979
36.555
36.2212
35.9006
35.5986
35.3215
35.0753
34.867
34.6979
34.573
34.4384
34.1931
34.0718
34.3314
34.7397
35.1241
34.9337
28.0425
28.0477
28.058
28.126
28.403
28.7667
28.7121
28.7184
29.1871
26.9342
26.7792
26.4752
25.8412
25.677
26.4117
26.581
25.8462
25.7232
23.506
23.4958
23.4786
23.4125
23.374
23.4648
23.8038
24.1757
24.3814
24.4151
24.2094
23.7287
23.0517
22.3006
21.5266
20.7531
19.9876
19.2298
18.4794
17.7383
17.0073
16.2845
15.5675
14.8545
14.1456
13.4389
12.7329
12.0282
11.326
10.6283
9.93643
9.24994
8.56706
7.8855
7.20357
6.52049
5.83618
5.15083
4.46478
3.77824
3.09149
2.40426
1.71753
1.02882
0.343842
39.9087
39.6257
39.2509
38.9211
38.6027
38.2772
37.9419
37.5975
37.249
36.9016
36.5596
36.2267
35.9074
35.607
35.3317
35.0873
34.8802
34.7105
34.5822
34.4542
34.2239
33.9965
34.0296
34.1415
34.3484
33.1629
27.6629
28.1956
28.2836
28.374
28.6281
28.8383
28.7711
28.6971
29.0586
26.7625
26.6743
26.4108
25.8306
25.583
26.027
26.0197
25.3345
25.1233
23.4992
23.5558
23.4933
23.425
23.4012
23.4969
23.8033
24.1548
24.3639
24.4098
24.2218
23.7559
23.0828
22.3287
21.5491
20.7699
19.9994
19.2376
18.4843
17.7417
17.0099
16.2866
15.5691
14.8559
14.1468
13.44
12.7338
12.0289
11.3263
10.6284
9.93623
9.24961
8.5667
7.88514
7.20322
6.52017
5.83589
5.15058
4.46457
3.77806
3.09134
2.40412
1.71742
1.02859
0.343917
39.9096
39.6266
39.2519
38.9221
38.6038
38.2784
37.9433
37.5992
37.251
36.9041
36.5625
36.2303
35.9118
35.6124
35.3382
35.0951
34.8887
34.7186
34.5877
34.4611
34.2484
33.97
33.8484
33.7164
33.6459
31.4747
28.0303
29.0917
28.8932
29.5435
29.8791
29.8518
29.6566
29.3964
28.9349
28.3975
28.4848
28.53
28.5889
28.7657
28.8263
28.7777
28.6367
28.6916
28.3312
28.1342
27.8445
27.5352
27.416
27.308
27.1739
26.8944
26.8736
26.4473
26.6545
26.6037
26.367
25.8313
25.533
25.7877
25.6827
25.0435
24.667
24.327
24.5236
24.2081
23.9209
23.7244
23.8251
23.7698
23.7097
23.3322
23.5225
23.5962
23.482
23.4286
23.421
23.5194
23.8027
24.1364
24.3504
24.4045
24.229
23.7719
23.1005
22.3445
21.5615
20.779
20.0057
19.2418
18.4871
17.7438
17.0116
16.2881
15.5703
14.8571
14.1478
13.4408
12.7345
12.0293
11.3266
10.6284
9.93613
9.24943
8.56649
7.88492
7.20301
6.51997
5.8357
5.15042
4.46444
3.77795
3.09124
2.40402
1.71733
1.02844
0.343958
39.9109
39.6279
39.2533
38.9235
38.6054
38.2803
37.9454
37.6017
37.2539
36.9076
36.5668
36.2355
35.9182
35.6203
35.3478
35.1063
34.901
34.73
34.5945
34.4668
34.28
33.9552
33.6272
33.2141
32.771
31.7719
30.6917
29.7201
29.31
29.6199
29.8936
29.8497
29.6872
29.5055
29.3383
29.2092
29.0665
28.9549
28.9654
28.9236
28.7779
28.7308
28.573
28.4197
28.2478
27.9898
27.7045
27.4838
27.4097
27.3186
27.17
26.9243
26.8542
26.7232
26.685
26.5403
26.3169
25.8396
25.4694
25.4627
25.2496
24.7467
24.6468
24.6336
24.5227
24.2477
23.9231
23.7298
23.8366
23.8701
23.7588
23.5916
23.6203
23.6223
23.4547
23.4488
23.4729
23.5655
23.8026
24.1038
24.3266
24.396
24.2376
23.7905
23.1209
22.3625
21.5758
20.7892
20.0127
19.2464
18.4904
17.7464
17.0141
16.2905
15.5725
14.859
14.1494
13.4421
12.7355
12.03
11.327
10.6285
9.93603
9.2492
8.56621
7.88462
7.20271
6.51967
5.83543
5.15017
4.46423
3.77777
3.09108
2.40387
1.7172
1.02823
0.344004
39.9125
39.6296
39.2551
38.9253
38.6074
38.2826
37.9481
37.6048
37.2576
36.912
36.5721
36.2421
35.9263
35.6301
35.3597
35.1203
34.9162
34.7441
34.6015
34.4656
34.2991
33.9995
33.5519
33.0371
32.5282
32.1046
31.6472
30.9378
30.4826
30.2422
30.0563
29.9675
29.9183
29.8752
29.8119
29.7222
29.529
29.3541
29.3209
29.0364
28.7573
28.6323
28.4628
28.2401
28.0346
27.7274
27.4724
27.3313
27.343
27.2817
27.1349
26.9484
26.8346
26.7135
26.6768
26.5196
26.315
25.8867
25.4416
25.1924
24.9162
24.5823
24.6056
24.6291
24.5142
24.2736
23.9583
23.7679
23.8471
23.9127
23.8515
23.7519
23.7069
23.6083
23.4902
23.5309
23.5918
23.6496
23.7997
24.0429
24.2779
24.3654
24.2233
23.7912
23.13
22.3735
21.5852
20.7957
20.0165
19.2485
18.4919
17.7483
17.0167
16.2936
15.5756
14.862
14.152
13.444
12.7369
12.0309
11.3275
10.6288
9.93601
9.24904
8.56597
7.88433
7.20238
6.51932
5.83509
5.14986
4.46395
3.77753
3.09087
2.40366
1.71702
1.02794
0.344054
39.9143
39.6316
39.2571
38.9274
38.6098
38.2852
37.9512
37.6084
37.2618
36.9171
36.5783
36.2497
35.9356
35.6416
35.3735
35.1367
34.9343
34.7612
34.6111
34.461
34.286
34.0548
33.6993
33.245
32.7832
32.3879
32.0739
31.6004
31.0707
30.5402
30.1164
30.0245
29.9879
29.9149
29.8165
29.7359
29.6285
29.6291
29.6023
29.1333
28.7046
28.4707
28.2645
28.0629
27.9158
27.7056
27.5438
27.4515
27.3469
27.2514
27.1132
26.9783
26.8347
26.7112
26.6361
26.5085
26.3129
25.9735
25.4669
25.0505
24.7471
24.533
24.5581
24.5654
24.48
24.2628
23.9753
23.7815
23.7899
23.8168
23.7959
23.7542
23.7194
23.6404
23.6154
23.6624
23.7179
23.7368
23.7978
23.9913
24.2309
24.3408
24.2124
23.7945
23.1405
22.3855
21.5947
20.8008
20.0176
19.2473
18.4908
17.7487
17.019
16.297
15.5795
14.8657
14.1552
13.4464
12.7385
12.032
11.3282
10.6291
9.9361
9.24899
8.56584
7.88413
7.20209
6.51897
5.83472
5.14951
4.46364
3.77725
3.09062
2.40341
1.71681
1.02761
0.344115
39.9167
39.634
39.2597
38.9301
38.6127
38.2885
37.955
37.6129
37.2671
36.9235
36.5861
36.2591
35.9472
35.6558
35.3908
35.1573
34.9578
34.7856
34.6304
34.4653
34.2739
34.0644
33.8054
33.4708
33.0964
32.7299
32.4404
31.9596
31.3622
30.7682
30.2636
30.1116
30.1179
30.1098
30.0709
30.0575
30.1267
30.2534
30.0089
29.1475
28.4472
28.1273
27.8807
27.7463
27.6951
27.6084
27.4986
27.4102
27.321
27.2183
27.0643
26.884
26.737
26.6172
26.5377
26.4169
26.2651
26.0261
25.5739
25.1071
24.8351
24.6881
24.6312
24.5688
24.4352
24.2297
23.9751
23.7982
23.7787
23.7495
23.7044
23.6712
23.6522
23.622
23.6054
23.6346
23.6872
23.6734
23.6934
23.8761
24.1284
24.2233
24.1078